------------------------------------------------------------
          Invoking FHI-aims ...

          When using FHI-aims, please cite the following reference:

            Volker Blum, Ralf Gehrke, Felix Hanke, Paula Havu,
            Ville Havu, Xinguo Ren, Karsten Reuter, and Matthias Scheffler,
            'Ab Initio Molecular Simulations with Numeric Atom-Centered Orbitals',
            Computer Physics Communications 180, 2175-2196 (2009)

          In addition, many other developments in FHI-aims are likely important for
          your particular application. A partial list of references is given at the end of
          this file. Thank you for giving credit to the authors of these developments.

          For any questions about FHI-aims, please visit our slack channel at

            https://fhi-aims.slack.com

          and our main development and support site at

            https://aims-git.rz-berlin.mpg.de .

          The latter site, in particular, has a wiki to collect information, as well
          as an issue tracker to log discussions, suggest improvements, and report issues
          or bugs. https://aims-git.rz-berlin.mpg.de is also the main development site
          of the project and all new and updated code versions can be obtained there.
          Please send an email to aims-coordinators@fhi-berlin.mpg.de and we will add
          you to these sites. They are for you and everyone is welcome there.

------------------------------------------------------------



  Date     :  20230815, Time     :  135924.908
  Time zero on CPU 1             :   0.102484650000000E+02  s.
  Internal wall clock time zero  :           461339964.908  s.

  FHI-aims created a unique identifier for this run for later identification
  aims_uuid : EE5B7B3F-2051-42AD-AB61-981D5CA4845B

  Build configuration of the current instance of FHI-aims
  -------------------------------------------------------
  FHI-aims version      : 221103
  Commit number         : GITDIR-NOTFOUND
  CMake host system     : Linux-5.14.21-150400.24.46_12.0.70-cray_shasta_c
  CMake version         : 3.21.3
  Fortran compiler      : /opt/cray/pe/craype/2.7.19/bin/ftn (GNU) version 11.2.0
  Fortran compiler flags: -O2 -fallow-argument-mismatch -ffree-line-length-none
  C compiler            : /opt/cray/pe/craype/2.7.19/bin/cc (GNU) version 11.2.0
  C compiler flags      : -O2
  HIP compiler          :
  HIP compiler flags    :
  HIP GPU arch          :
  Using MPI
  Using ScaLAPACK
  Using LibXC
  Using i-PI
  Using RLSY
  Linking against:

  Using      256 parallel tasks.
  Task        0 on host nid003557 reporting.
  Task        1 on host nid003557 reporting.
  Task        2 on host nid003557 reporting.
  Task        3 on host nid003557 reporting.
  Task        4 on host nid003557 reporting.
  Task        5 on host nid003557 reporting.
  Task        6 on host nid003557 reporting.
  Task        7 on host nid003557 reporting.
  Task        8 on host nid003557 reporting.
  Task        9 on host nid003557 reporting.
  Task       10 on host nid003557 reporting.
  Task       11 on host nid003557 reporting.
  Task       12 on host nid003557 reporting.
  Task       13 on host nid003557 reporting.
  Task       14 on host nid003557 reporting.
  Task       15 on host nid003557 reporting.
  Task       16 on host nid003557 reporting.
  Task       17 on host nid003557 reporting.
  Task       18 on host nid003557 reporting.
  Task       19 on host nid003557 reporting.
  Task       20 on host nid003557 reporting.
  Task       21 on host nid003557 reporting.
  Task       22 on host nid003557 reporting.
  Task       23 on host nid003557 reporting.
  Task       24 on host nid003557 reporting.
  Task       25 on host nid003557 reporting.
  Task       26 on host nid003557 reporting.
  Task       27 on host nid003557 reporting.
  Task       28 on host nid003557 reporting.
  Task       29 on host nid003557 reporting.
  Task       30 on host nid003557 reporting.
  Task       31 on host nid003557 reporting.
  Task       32 on host nid003557 reporting.
  Task       33 on host nid003557 reporting.
  Task       34 on host nid003557 reporting.
  Task       35 on host nid003557 reporting.
  Task       36 on host nid003557 reporting.
  Task       37 on host nid003557 reporting.
  Task       38 on host nid003557 reporting.
  Task       39 on host nid003557 reporting.
  Task       40 on host nid003557 reporting.
  Task       41 on host nid003557 reporting.
  Task       42 on host nid003557 reporting.
  Task       43 on host nid003557 reporting.
  Task       44 on host nid003557 reporting.
  Task       45 on host nid003557 reporting.
  Task       46 on host nid003557 reporting.
  Task       47 on host nid003557 reporting.
  Task       48 on host nid003557 reporting.
  Task       49 on host nid003557 reporting.
  Task       50 on host nid003557 reporting.
  Task       51 on host nid003557 reporting.
  Task       52 on host nid003557 reporting.
  Task       53 on host nid003557 reporting.
  Task       54 on host nid003557 reporting.
  Task       55 on host nid003557 reporting.
  Task       56 on host nid003557 reporting.
  Task       57 on host nid003557 reporting.
  Task       58 on host nid003557 reporting.
  Task       59 on host nid003557 reporting.
  Task       60 on host nid003557 reporting.
  Task       61 on host nid003557 reporting.
  Task       62 on host nid003557 reporting.
  Task       63 on host nid003557 reporting.
  Task       64 on host nid003557 reporting.
  Task       65 on host nid003557 reporting.
  Task       66 on host nid003557 reporting.
  Task       67 on host nid003557 reporting.
  Task       68 on host nid003557 reporting.
  Task       69 on host nid003557 reporting.
  Task       70 on host nid003557 reporting.
  Task       71 on host nid003557 reporting.
  Task       72 on host nid003557 reporting.
  Task       73 on host nid003557 reporting.
  Task       74 on host nid003557 reporting.
  Task       75 on host nid003557 reporting.
  Task       76 on host nid003557 reporting.
  Task       77 on host nid003557 reporting.
  Task       78 on host nid003557 reporting.
  Task       79 on host nid003557 reporting.
  Task       80 on host nid003557 reporting.
  Task       81 on host nid003557 reporting.
  Task       82 on host nid003557 reporting.
  Task       83 on host nid003557 reporting.
  Task       84 on host nid003557 reporting.
  Task       85 on host nid003557 reporting.
  Task       86 on host nid003557 reporting.
  Task       87 on host nid003557 reporting.
  Task       88 on host nid003557 reporting.
  Task       89 on host nid003557 reporting.
  Task       90 on host nid003557 reporting.
  Task       91 on host nid003557 reporting.
  Task       92 on host nid003557 reporting.
  Task       93 on host nid003557 reporting.
  Task       94 on host nid003557 reporting.
  Task       95 on host nid003557 reporting.
  Task       96 on host nid003557 reporting.
  Task       97 on host nid003557 reporting.
  Task       98 on host nid003557 reporting.
  Task       99 on host nid003557 reporting.
  Task      100 on host nid003557 reporting.
  Task      101 on host nid003557 reporting.
  Task      102 on host nid003557 reporting.
  Task      103 on host nid003557 reporting.
  Task      104 on host nid003557 reporting.
  Task      105 on host nid003557 reporting.
  Task      106 on host nid003557 reporting.
  Task      107 on host nid003557 reporting.
  Task      108 on host nid003557 reporting.
  Task      109 on host nid003557 reporting.
  Task      110 on host nid003557 reporting.
  Task      111 on host nid003557 reporting.
  Task      112 on host nid003557 reporting.
  Task      113 on host nid003557 reporting.
  Task      114 on host nid003557 reporting.
  Task      115 on host nid003557 reporting.
  Task      116 on host nid003557 reporting.
  Task      117 on host nid003557 reporting.
  Task      118 on host nid003557 reporting.
  Task      119 on host nid003557 reporting.
  Task      120 on host nid003557 reporting.
  Task      121 on host nid003557 reporting.
  Task      122 on host nid003557 reporting.
  Task      123 on host nid003557 reporting.
  Task      124 on host nid003557 reporting.
  Task      125 on host nid003557 reporting.
  Task      126 on host nid003557 reporting.
  Task      127 on host nid003557 reporting.
  Task      128 on host nid003622 reporting.
  Task      129 on host nid003622 reporting.
  Task      130 on host nid003622 reporting.
  Task      131 on host nid003622 reporting.
  Task      132 on host nid003622 reporting.
  Task      133 on host nid003622 reporting.
  Task      134 on host nid003622 reporting.
  Task      135 on host nid003622 reporting.
  Task      136 on host nid003622 reporting.
  Task      137 on host nid003622 reporting.
  Task      138 on host nid003622 reporting.
  Task      139 on host nid003622 reporting.
  Task      140 on host nid003622 reporting.
  Task      141 on host nid003622 reporting.
  Task      142 on host nid003622 reporting.
  Task      143 on host nid003622 reporting.
  Task      144 on host nid003622 reporting.
  Task      145 on host nid003622 reporting.
  Task      146 on host nid003622 reporting.
  Task      147 on host nid003622 reporting.
  Task      148 on host nid003622 reporting.
  Task      149 on host nid003622 reporting.
  Task      150 on host nid003622 reporting.
  Task      151 on host nid003622 reporting.
  Task      152 on host nid003622 reporting.
  Task      153 on host nid003622 reporting.
  Task      154 on host nid003622 reporting.
  Task      155 on host nid003622 reporting.
  Task      156 on host nid003622 reporting.
  Task      157 on host nid003622 reporting.
  Task      158 on host nid003622 reporting.
  Task      159 on host nid003622 reporting.
  Task      160 on host nid003622 reporting.
  Task      161 on host nid003622 reporting.
  Task      162 on host nid003622 reporting.
  Task      163 on host nid003622 reporting.
  Task      164 on host nid003622 reporting.
  Task      165 on host nid003622 reporting.
  Task      166 on host nid003622 reporting.
  Task      167 on host nid003622 reporting.
  Task      168 on host nid003622 reporting.
  Task      169 on host nid003622 reporting.
  Task      170 on host nid003622 reporting.
  Task      171 on host nid003622 reporting.
  Task      172 on host nid003622 reporting.
  Task      173 on host nid003622 reporting.
  Task      174 on host nid003622 reporting.
  Task      175 on host nid003622 reporting.
  Task      176 on host nid003622 reporting.
  Task      177 on host nid003622 reporting.
  Task      178 on host nid003622 reporting.
  Task      179 on host nid003622 reporting.
  Task      180 on host nid003622 reporting.
  Task      181 on host nid003622 reporting.
  Task      182 on host nid003622 reporting.
  Task      183 on host nid003622 reporting.
  Task      184 on host nid003622 reporting.
  Task      185 on host nid003622 reporting.
  Task      186 on host nid003622 reporting.
  Task      187 on host nid003622 reporting.
  Task      188 on host nid003622 reporting.
  Task      189 on host nid003622 reporting.
  Task      190 on host nid003622 reporting.
  Task      191 on host nid003622 reporting.
  Task      192 on host nid003622 reporting.
  Task      193 on host nid003622 reporting.
  Task      194 on host nid003622 reporting.
  Task      195 on host nid003622 reporting.
  Task      196 on host nid003622 reporting.
  Task      197 on host nid003622 reporting.
  Task      198 on host nid003622 reporting.
  Task      199 on host nid003622 reporting.
  Task      200 on host nid003622 reporting.
  Task      201 on host nid003622 reporting.
  Task      202 on host nid003622 reporting.
  Task      203 on host nid003622 reporting.
  Task      204 on host nid003622 reporting.
  Task      205 on host nid003622 reporting.
  Task      206 on host nid003622 reporting.
  Task      207 on host nid003622 reporting.
  Task      208 on host nid003622 reporting.
  Task      209 on host nid003622 reporting.
  Task      210 on host nid003622 reporting.
  Task      211 on host nid003622 reporting.
  Task      212 on host nid003622 reporting.
  Task      213 on host nid003622 reporting.
  Task      214 on host nid003622 reporting.
  Task      215 on host nid003622 reporting.
  Task      216 on host nid003622 reporting.
  Task      217 on host nid003622 reporting.
  Task      218 on host nid003622 reporting.
  Task      219 on host nid003622 reporting.
  Task      220 on host nid003622 reporting.
  Task      221 on host nid003622 reporting.
  Task      222 on host nid003622 reporting.
  Task      223 on host nid003622 reporting.
  Task      224 on host nid003622 reporting.
  Task      225 on host nid003622 reporting.
  Task      226 on host nid003622 reporting.
  Task      227 on host nid003622 reporting.
  Task      228 on host nid003622 reporting.
  Task      229 on host nid003622 reporting.
  Task      230 on host nid003622 reporting.
  Task      231 on host nid003622 reporting.
  Task      232 on host nid003622 reporting.
  Task      233 on host nid003622 reporting.
  Task      234 on host nid003622 reporting.
  Task      235 on host nid003622 reporting.
  Task      236 on host nid003622 reporting.
  Task      237 on host nid003622 reporting.
  Task      238 on host nid003622 reporting.
  Task      239 on host nid003622 reporting.
  Task      240 on host nid003622 reporting.
  Task      241 on host nid003622 reporting.
  Task      242 on host nid003622 reporting.
  Task      243 on host nid003622 reporting.
  Task      244 on host nid003622 reporting.
  Task      245 on host nid003622 reporting.
  Task      246 on host nid003622 reporting.
  Task      247 on host nid003622 reporting.
  Task      248 on host nid003622 reporting.
  Task      249 on host nid003622 reporting.
  Task      250 on host nid003622 reporting.
  Task      251 on host nid003622 reporting.
  Task      252 on host nid003622 reporting.
  Task      253 on host nid003622 reporting.
  Task      254 on host nid003622 reporting.
  Task      255 on host nid003622 reporting.

  Performing system and environment tests:
  | Environment variable OMP_NUM_THREADS correctly set to 1.
  | Checking for ScaLAPACK...
  | No ScaLAPACK compiled in.

  Obtaining array dimensions for all initial allocations:
  
  -----------------------------------------------------------------------
  Parsing control.in (first pass over file, find array dimensions only).
  The contents of control.in will be repeated verbatim below
  unless switched off by setting 'verbatim_writeout .false.' .
  in the first line of control.in .
  -----------------------------------------------------------------------
  
  xc                 pbe
  vdw_correction_hirshfeld_alkali
  spin               none
  relativistic       atomic_zora scalar
  
  #k-points
  #k_grid	2	2	2
  
  # SCF convergence
  occupation_type    gaussian 0.01
  mixer              pulay
  n_max_pulay        8            # default value 8
  charge_mix_param   0.2          # non-metallic conservative value
  sc_accuracy_eev    1E-3         # eigen value check
  #sc_accuracy_rho    1E-6         # density check
  #sc_accuracy_etot   1E-5
  #sc_accuracy_forces 1E-4
  
  sc_accuracy_forces not_checked
  sc_iter_limit   4000
  
  # Relaxation
  #relax_unit_cell  full
  relax_geometry   bfgs 1.e-3
  ################################################################################
  #
  #  FHI-aims code project
  #  Volker Blum, 2017
  #
  #  Suggested "intermediate" defaults for Pb atom (to be pasted into control.in file)
  #
  ################################################################################
    species        Pb
  #     global species definitions
      nucleus             82
      mass                207.2
  #
      l_hartree           6
  #
      cut_pot             4.0  2.0  1.0
      basis_dep_cutoff    1e-4
  #
      radial_base         74 7.0
      radial_multiplier   2
      angular_grids specified
        division   0.1064  110
        division   0.1579  194
        division   0.2150  302
        division   1.0164  434
  #      division   1.1544  590
  #      division   1.1970  770
  #      division   7.7779  974
  #      outer_grid  974
        outer_grid  434
   ################################################################################
  #
  #  Definition of "minimal" basis
  #
  ################################################################################
  #     valence basis states
      valence      6  s   2.
      valence      6  p   2.
      valence      5  d  10.
      valence      4  f  14.
  #     ion occupancy
      ion_occ     6  s    1.
      ion_occ     6  p    1.
      ion_occ     5  d   10.
      ion_occ     4  f   14.
  ################################################################################
  #
  #  Suggested additional basis functions. For production calculations,
  #  uncomment them one after another (the most important basis functions are
  #  listed first).
  #
  #  Constructed for dimers: 2.225, 2.50, 2.88, 3.625, 4.50
  #
  ################################################################################
  #  "First tier" - max. impr. -156.54 meV, min. impr. -14.49 meV
       hydro 3 p 2.3
       hydro 4 f 7.6
       hydro 3 d 3.5
       for_aux    hydro 5 g 9.8
       hydro 3 s 3.2
  #  "Second tier" - max. impr. -4.38  meV, min. impr. -0.30 meV
  #     hydro 6 h 12.8
  #     hydro 3 d 2.4
  #     hydro 5 f 7.2
  #     hydro 5 f 14.8
  #     hydro 4 p 5.4
  #     ionic 6 s auto
  #  "Third tier" - max. impr. -0.86 meV, min. impr. -0.16 meV
  #     hydro 5 p 14.4
  #     hydro 5 g 8.2
  #     hydro 4 d 4.6
  #     hydro 6 h 12.4
  #     hydro 6 d 12.4
  #     hydro 4 s 4
  #     hydro 5 g 32.8
  #     hydro 5 f 9.4
  #  Further functions: -0.10 meV and below
  #     hydro 5 f 17.6
  #     hydro 7 p 19.6
  ################################################################################
  #
  #  FHI-aims code project
  #  Volker Blum, Fritz Haber Institute Berlin, 2009
  #  Tong Zhu, Will Huhn and Volker Blum, Duke University 2018
  #
  #  Suggested "intermediate" defaults for Cs atom (to be pasted into control.in file)
  #
  #  Rb, Sr, Cs and Ba are very large atoms. This requires uncomfortably large
  #  cut_pot radii (the high cut_pot values are especially costly for hybrid DFT
  #  calculations, both regarding time and memory). Additionally, since they are
  #  relatively heavy elements, high-accuracy basis set convergence actually
  #  requires more radial functions than for their light-element counterparts.
  #
  #  Compared to the "tight" settings, the "intermediate" settings for Cs are
  #  reduced in the following way:
  #
  #  - cut_pot from 6.0 Angstrom to 5.5 Angstrom
  #
  #  The cut_pot value has a noticeable effect particularly for neutral situations
  #  (the Cs dimer is a good example) and we were not comfortable with reducing it more.
  #  ("intermediate" still implies high accuracy.) However, a comparison to the "light"
  #  settings (which are not crazy) shows that further reductions are possible in many
  #  situations, if the cut_pot value for Cs is the bottleneck. (Note that some internal
  #  cutoffs in current FHI-aims are set according to the largest atom, and so in principle,
  #  even a single Cs atom in a large structure can have a noticeable effect on memory and
  #  speed.)
  #
  ################################################################################
    species          Cs
  #     global species definitions
      nucleus        55
      mass           132.9054519
  #
      l_hartree      6
  #
      cut_pot        5.5  2.0  1.0
      basis_dep_cutoff    1e-4
  #
      radial_base    65  7.0
      radial_multiplier  2
      angular_grids specified
        division   0.7542  110
        division   1.0056  194
        division   1.2887  302
        division   1.4138  434
  #      division   1.5042  590
  #      division   1.6519  770
  #      outer_grid  974
        outer_grid  434
  ################################################################################
  #
  #  Definition of "minimal" basis
  #
  ################################################################################
  #     valence basis states
      valence      6  s   1.
      valence      5  p   6.
      valence      4  d  10.
  #     ion occupancy
      ion_occ      6  s   0.
      ion_occ      5  p   6.
      ion_occ      4  d  10.
  ################################################################################
  #
  #  Suggested additional basis functions. For production calculations,
  #  uncomment them one after another (the most important basis functions are
  #  listed first).
  #
  #  Constructed for dimers: 2.70, 3.50, 4.50, 5.50 Ang
  #
  ################################################################################
  #  "First tier" - improvements: -138.41 meV to -7.10 meV
       hydro 3 d 3.9
       hydro 4 f 6.4
       hydro 3 p 2.3
       hydro 4 s 2.7
  #  "Second tier" - improvements: -6.08 meV to -0.77 meV
       hydro 4 d 3.9
  #     hydro 4 f 20.8
  #     hydro 5 g 8.6
  #     hydro 5 f 41.6
  #     hydro 6 h 11.6
  #     hydro 4 p 7.0
  #     hydro 4 s 3.8
  #  "Third tier" - max. impr. -0.54 meV, min. impr. -0.09 meV
  #     hydro 5 d 10
  #     hydro 5 f 17.6
  #     hydro 4 p 3.5
  #     hydro 5 f 7.4
  #     hydro 1 s 2.3
  #     hydro 5 g 11.6
  #  One more function - impr. -0.05 meV
  #     hydro 6 d 17.2
  ################################################################################
  #
  #  FHI-aims code project
  #  Volker Blum, 2018
  #
  #  Suggested "intermediate" defaults for Br atom (to be pasted into control.in file)
  #
  #  2020/09/15 These "intermediate" settings are identical to past "tight" defaults
  #             and differ only in the "g" function that is now included in "tight".
  #
  ################################################################################
    species        Br
  #     global species definitions
      nucleus             35
      mass                79.904
  #
      l_hartree           6
  #
      cut_pot             4.0          2.0  1.0
      basis_dep_cutoff    1e-4
  #
      radial_base         56 7.0
      radial_multiplier   2
      angular_grids       specified
        division   0.0871  110
        division   0.1400  194
        division   0.7896  302
        division   0.8837  434
  #      division   0.9869  590
  #      division   1.0613  770
  #      division   2.6835  974
  #      outer_grid  974
        outer_grid  434
  ################################################################################
  #
  #  Definition of "minimal" basis
  #
  ################################################################################
  #     valence basis states
      valence      4  s   2.
      valence      4  p   5.
      valence      3  d  10.
  #     ion occupancy
      ion_occ      4  s   1.
      ion_occ      4  p   4.
      ion_occ      3  d  10.
  ################################################################################
  #
  #  Suggested additional basis functions. For production calculations,
  #  uncomment them one after another (the most important basis functions are
  #  listed first).
  #
  #  Constructed for dimers: 1.90 A, 2.25 A, 2.75 A, 3.25 A, 4.00 A
  #
  ################################################################################
  #  "First tier" - improvements: -247.24 meV to -20.97 meV
       hydro 3 d 4.6
       hydro 2 p 1.7
       hydro 4 f 7.6
       ionic 4 s auto
  #  "Second tier" - improvements: -9.01 meV to -0.73 meV
  #     hydro 5 g 10.4
  #     hydro 3 d 4.1
  #     hydro 6 h 14.8
  #     hydro 4 p 4.7
  #     hydro 1 s 0.7
  #     hydro 4 f 12.4
  #  "Third tier" - improvements: -0.26 meV and below
  #     hydro 5 f 14.8
  #     hydro 5 d 7.8
  #     hydro 5 g 14.4
  #     ionic 4 p auto
  #     hydro 3 s 3.2
  #  "Fourth tier" - improvements: -0.09 meV and below
  #     hydro 5 f 25.6
  #     hydro 5 d 11.2
  #     hydro 3 p 3.9
  #     hydro 6 h 16.8
  #     hydro 5 g 13.2
  #     hydro 5 s 5.4
  ################################################################################
  #
  #  FHI-aims code project
  #  Volker Blum, 2018
  #
  #  Suggested "intermediate" defaults for I atom (to be pasted into control.in file)
  #
  #  2020/09/15 These "intermediate" settings are identical to past "tight" defaults
  #             and differ only in the "g" function that is now included in "tight".
  #
  ################################################################################
    species          I
  #     global species definitions
      nucleus        53
      mass           126.90447
  #
      l_hartree      6
  #
      cut_pot        4.0  2.0  1.0
      basis_dep_cutoff    1e-4
  #
      radial_base    64  7.0
      radial_multiplier  2
      angular_grids specified
        division   0.1103  110
        division   0.1515  194
        division   0.9554  302
  #      division   1.1196  590
  #      division   1.1922  770
  #      division   6.1948  974
  #      outer_grid  974
        outer_grid  434
  ################################################################################
  #
  #  Definition of "minimal" basis
  #
  ################################################################################
  #     valence basis states
      valence      5  s   2.
      valence      5  p   5.
      valence      4  d  10.
  #     ion occupancy
      ion_occ      5  s   1.
      ion_occ      5  p   4.
      ion_occ      4  d  10.
  ################################################################################
  #
  #  Suggested additional basis functions. For production calculations,
  #  uncomment them one after another (the most important basis functions are
  #  listed first).
  #
  #  Constructed for dimers: 2.22, 2.65, 3.25, 4.25 Ang
  #
  ################################################################################
  #  "First tier" - improvements: -270.74 meV to -21.24 meV
       hydro 3 d 4
       hydro 4 f 6.4
       hydro 2 p 1.6
       ionic 5 s auto
  #  "Second tier" - improvements: -16.39 meV to -0.39 meV
  #     hydro 5 g 9.4
  #     hydro 4 f 18.4
  #     hydro 6 h 12.4
  #     hydro 4 p 4.5
  #     hydro 3 d 4.2
  #     hydro 3 s 3.0
  #  "Third tier" - max. impr. -0.76 meV, min. impr. -0.06 meV
  #     hydro 5 f 15.6
  #     hydro 5 g 12
  #     hydro 5 d 16
  #     hydro 4 f 42
  #     hydro 6 h 15.2
  #     ionic 5 p auto
  #     hydro 1 s 6.2
  #  Further functions that fell out of the optimization: -0.10 meV and below
  #     hydro 4 f 7
  #     hydro 6 p 9
  #     hydro 2 s 6.4
  
  -----------------------------------------------------------------------
  Completed first pass over input file control.in .
  -----------------------------------------------------------------------
  
  
  -----------------------------------------------------------------------
  Parsing geometry.in (first pass over file, find array dimensions only).
  The contents of geometry.in will be repeated verbatim below
  unless switched off by setting 'verbatim_writeout .false.' .
  in the first line of geometry.in .
  -----------------------------------------------------------------------
  
  atom	0	0	0	Pb
  atom	2.6	0	0	Br
  atom	0	2.6	0	Br
  
  -----------------------------------------------------------------------
  Completed first pass over input file geometry.in .
  -----------------------------------------------------------------------
  

  Basic array size parameters:
  | Number of species                 :        4
  | Number of atoms                   :        3
  | Max. basis fn. angular momentum   :        4
  | Max. atomic/ionic basis occupied n:        6
  | Max. number of basis fn. types    :        3
  | Max. radial fns per species/type  :       15
  | Max. logarithmic grid size        :     1491
  | Max. radial integration grid size :      149
  | Max. angular integration grid size:      434
  | Max. angular grid division number :        8
  | Radial grid for Hartree potential :     1491
  | Number of spin channels           :        1

------------------------------------------------------------
          Reading file control.in.
------------------------------------------------------------
  XC: Using PBE gradient-corrected functionals.
  Spin treatment: No spin polarisation.
  Scalar relativistic treatment of kinetic energy: on-site free-atom approximation to ZORA.
  Occupation type: Gaussian broadening, width =   0.100000E-01 eV.
  Using pulay charge density mixing.
  Pulay mixing - number of memorized iterations:    8
  Charge density mixing - mixing parameter:     0.2000
  Convergence accuracy of sum of eigenvalues:  0.1000E-02
  | Force self-consistency will not be checked explicitly.
  Maximum number of s.-c. iterations  :  4000
  Geometry relaxation: Modified BFGS - TRM (trust radius method) for lattice optimization.
  Convergence accuracy for geometry relaxation: Maximum force <   0.100000E-02 eV/A.

  Reading configuration options for species Pb                  .
  | Found nuclear charge :  82.0000
  | Found atomic mass :    207.19999999999999      amu
  | Found l_max for Hartree potential  :   6
  | Found cutoff potl. onset [A], width [A], scale factor :    4.00000    2.00000    1.00000
  | Threshold for basis-dependent cutoff potential is   0.100000E-03
  | Found data for basic radial integration grid :    74 points, outermost radius =    7.000 A
  | Found multiplier for basic radial grid :   2
  | Found angular grid specification: user-specified.
  | Specified grid contains     5 separate shells.
  | Check grid settings after all constraints further below.
  | Found free-atom valence shell :  6 s   2.000
  | Found free-atom valence shell :  6 p   2.000
  | Found free-atom valence shell :  5 d  10.000
  | Found free-atom valence shell :  4 f  14.000
  | Found free-ion valence shell :  6 s   1.000
  | Found free-ion valence shell :  6 p   1.000
  | Found free-ion valence shell :  5 d  10.000
  | Found free-ion valence shell :  4 f  14.000
  | Found hydrogenic basis function :  3 p   2.300
  | Found hydrogenic basis function :  4 f   7.600
  | Found hydrogenic basis function :  3 d   3.500
  | Found hydrogenic extended basis function :  5 g   9.800
  | Found hydrogenic basis function :  3 s   3.200
  Species Pb                  : Missing cutoff potential type.
  Defaulting to exp(1/x)/(1-x)^2 type cutoff potential.
  Species Pb: No 'logarithmic' tag. Using default grid for free atom:
  | Default logarithmic grid data [bohr] : 0.1000E-03 0.1000E+03 0.1012E+01
  Species Pb: On-site basis accuracy parameter (for Gram-Schmidt orthonormalisation) not specified.
  Using default value basis_acc =  0.1000000E-03.
  Species Pb                  : Using default innermost maximum threshold i_radial=  2 for radial functions.
  Species Pb                  : Default cutoff onset for free atom density etc. : 0.40000000E+01 AA.
  Species Pb                  : Basic radial grid will be enhanced according to radial_multiplier =   2, to contain   149 grid points.

  Reading configuration options for species Cs                  .
  | Found nuclear charge :  55.0000
  | Found atomic mass :    132.90545190000000      amu
  | Found l_max for Hartree potential  :   6
  | Found cutoff potl. onset [A], width [A], scale factor :    5.50000    2.00000    1.00000
  | Threshold for basis-dependent cutoff potential is   0.100000E-03
  | Found data for basic radial integration grid :    65 points, outermost radius =    7.000 A
  | Found multiplier for basic radial grid :   2
  | Found angular grid specification: user-specified.
  | Specified grid contains     5 separate shells.
  | Check grid settings after all constraints further below.
  | Found free-atom valence shell :  6 s   1.000
  | Found free-atom valence shell :  5 p   6.000
  | Found free-atom valence shell :  4 d  10.000
  | Found free-ion valence shell :  6 s   0.000
  | Found free-ion valence shell :  5 p   6.000
  | Found free-ion valence shell :  4 d  10.000
  | Found hydrogenic basis function :  3 d   3.900
  | Found hydrogenic basis function :  4 f   6.400
  | Found hydrogenic basis function :  3 p   2.300
  | Found hydrogenic basis function :  4 s   2.700
  | Found hydrogenic basis function :  4 d   3.900
  Species Cs                  : Missing cutoff potential type.
  Defaulting to exp(1/x)/(1-x)^2 type cutoff potential.
  Species Cs: No 'logarithmic' tag. Using default grid for free atom:
  | Default logarithmic grid data [bohr] : 0.1000E-03 0.1000E+03 0.1012E+01
  Species Cs: On-site basis accuracy parameter (for Gram-Schmidt orthonormalisation) not specified.
  Using default value basis_acc =  0.1000000E-03.
  Species Cs                  : Using default innermost maximum threshold i_radial=  2 for radial functions.
  Species Cs                  : Default cutoff onset for free atom density etc. : 0.55000000E+01 AA.
  Species Cs                  : Basic radial grid will be enhanced according to radial_multiplier =   2, to contain   131 grid points.

  Reading configuration options for species Br                  .
  | Found nuclear charge :  35.0000
  | Found atomic mass :    79.903999999999996      amu
  | Found l_max for Hartree potential  :   6
  | Found cutoff potl. onset [A], width [A], scale factor :    4.00000    2.00000    1.00000
  | Threshold for basis-dependent cutoff potential is   0.100000E-03
  | Found data for basic radial integration grid :    56 points, outermost radius =    7.000 A
  | Found multiplier for basic radial grid :   2
  | Found angular grid specification: user-specified.
  | Specified grid contains     5 separate shells.
  | Check grid settings after all constraints further below.
  | Found free-atom valence shell :  4 s   2.000
  | Found free-atom valence shell :  4 p   5.000
  | Found free-atom valence shell :  3 d  10.000
  | Found free-ion valence shell :  4 s   1.000
  | Found free-ion valence shell :  4 p   4.000
  | Found free-ion valence shell :  3 d  10.000
  | Found hydrogenic basis function :  3 d   4.600
  | Found hydrogenic basis function :  2 p   1.700
  | Found hydrogenic basis function :  4 f   7.600
  | Found ionic basis function :  4 s , default cutoff radius.
  Species Br                  : Missing cutoff potential type.
  Defaulting to exp(1/x)/(1-x)^2 type cutoff potential.
  Species Br: No 'logarithmic' tag. Using default grid for free atom:
  | Default logarithmic grid data [bohr] : 0.1000E-03 0.1000E+03 0.1012E+01
  | Will include ionic basis functions of  2.0-fold positive Br                   ion.
  Species Br: On-site basis accuracy parameter (for Gram-Schmidt orthonormalisation) not specified.
  Using default value basis_acc =  0.1000000E-03.
  Species Br                  : Using default innermost maximum threshold i_radial=  2 for radial functions.
  Species Br                  : Default cutoff onset for free atom density etc. : 0.40000000E+01 AA.
  Species Br                  : Basic radial grid will be enhanced according to radial_multiplier =   2, to contain   113 grid points.

  Reading configuration options for species I                   .
  | Found nuclear charge :  53.0000
  | Found atomic mass :    126.90447000000000      amu
  | Found l_max for Hartree potential  :   6
  | Found cutoff potl. onset [A], width [A], scale factor :    4.00000    2.00000    1.00000
  | Threshold for basis-dependent cutoff potential is   0.100000E-03
  | Found data for basic radial integration grid :    64 points, outermost radius =    7.000 A
  | Found multiplier for basic radial grid :   2
  | Found angular grid specification: user-specified.
  | Specified grid contains     4 separate shells.
  | Check grid settings after all constraints further below.
  | Found free-atom valence shell :  5 s   2.000
  | Found free-atom valence shell :  5 p   5.000
  | Found free-atom valence shell :  4 d  10.000
  | Found free-ion valence shell :  5 s   1.000
  | Found free-ion valence shell :  5 p   4.000
  | Found free-ion valence shell :  4 d  10.000
  | Found hydrogenic basis function :  3 d   4.000
  | Found hydrogenic basis function :  4 f   6.400
  | Found hydrogenic basis function :  2 p   1.600
  | Found ionic basis function :  5 s , default cutoff radius.
  Species I                   : Missing cutoff potential type.
  Defaulting to exp(1/x)/(1-x)^2 type cutoff potential.
  Species I : No 'logarithmic' tag. Using default grid for free atom:
  | Default logarithmic grid data [bohr] : 0.1000E-03 0.1000E+03 0.1012E+01
  | Will include ionic basis functions of  2.0-fold positive I                    ion.
  Species I : On-site basis accuracy parameter (for Gram-Schmidt orthonormalisation) not specified.
  Using default value basis_acc =  0.1000000E-03.
  Species I                   : Using default innermost maximum threshold i_radial=  2 for radial functions.
  Species I                   : Default cutoff onset for free atom density etc. : 0.40000000E+01 AA.
  Species I                   : Basic radial grid will be enhanced according to radial_multiplier =   2, to contain   129 grid points.

  Finished reading input file 'control.in'.

------------------------------------------------------------


------------------------------------------------------------
          Reading geometry description geometry.in.
------------------------------------------------------------
  | The smallest distance between any two atoms is         2.60000000 AA.
  | The first atom of this pair is atom number                      1 .
  | The second atom of this pair is atom number                     2 .
  Input structure read successfully.
  The structure contains        3 atoms,  and a total of        152.000 electrons.

  Input geometry:
  | No unit cell requested.
  | Atomic structure:
  |       Atom                x [A]            y [A]            z [A]
  |    1: Species Pb            0.00000000        0.00000000        0.00000000
  |    2: Species Br            2.60000000        0.00000000        0.00000000
  |    3: Species Br            0.00000000        2.60000000        0.00000000


  Finished reading input file 'geometry.in'.



  Consistency checks for stacksize environment parameter are next.

  | Maximum stacksize for task 0: unlimited
  | Maximum stacksize for task 1: unlimited
  | Maximum stacksize for task 2: unlimited
  | Maximum stacksize for task 3: unlimited
  | Maximum stacksize for task 4: unlimited
  | Maximum stacksize for task 5: unlimited
  | Maximum stacksize for task 6: unlimited
  | Maximum stacksize for task 7: unlimited
  | Maximum stacksize for task 8: unlimited
  | Maximum stacksize for task 9: unlimited
  | Maximum stacksize for task 10: unlimited
  | Maximum stacksize for task 11: unlimited
  | Maximum stacksize for task 12: unlimited
  | Maximum stacksize for task 13: unlimited
  | Maximum stacksize for task 14: unlimited
  | Maximum stacksize for task 15: unlimited
  | Maximum stacksize for task 16: unlimited
  | Maximum stacksize for task 17: unlimited
  | Maximum stacksize for task 18: unlimited
  | Maximum stacksize for task 19: unlimited
  | Maximum stacksize for task 20: unlimited
  | Maximum stacksize for task 21: unlimited
  | Maximum stacksize for task 22: unlimited
  | Maximum stacksize for task 23: unlimited
  | Maximum stacksize for task 24: unlimited
  | Maximum stacksize for task 25: unlimited
  | Maximum stacksize for task 26: unlimited
  | Maximum stacksize for task 27: unlimited
  | Maximum stacksize for task 28: unlimited
  | Maximum stacksize for task 29: unlimited
  | Maximum stacksize for task 30: unlimited
  | Maximum stacksize for task 31: unlimited
  | Maximum stacksize for task 32: unlimited
  | Maximum stacksize for task 33: unlimited
  | Maximum stacksize for task 34: unlimited
  | Maximum stacksize for task 35: unlimited
  | Maximum stacksize for task 36: unlimited
  | Maximum stacksize for task 37: unlimited
  | Maximum stacksize for task 38: unlimited
  | Maximum stacksize for task 39: unlimited
  | Maximum stacksize for task 40: unlimited
  | Maximum stacksize for task 41: unlimited
  | Maximum stacksize for task 42: unlimited
  | Maximum stacksize for task 43: unlimited
  | Maximum stacksize for task 44: unlimited
  | Maximum stacksize for task 45: unlimited
  | Maximum stacksize for task 46: unlimited
  | Maximum stacksize for task 47: unlimited
  | Maximum stacksize for task 48: unlimited
  | Maximum stacksize for task 49: unlimited
  | Maximum stacksize for task 50: unlimited
  | Maximum stacksize for task 51: unlimited
  | Maximum stacksize for task 52: unlimited
  | Maximum stacksize for task 53: unlimited
  | Maximum stacksize for task 54: unlimited
  | Maximum stacksize for task 55: unlimited
  | Maximum stacksize for task 56: unlimited
  | Maximum stacksize for task 57: unlimited
  | Maximum stacksize for task 58: unlimited
  | Maximum stacksize for task 59: unlimited
  | Maximum stacksize for task 60: unlimited
  | Maximum stacksize for task 61: unlimited
  | Maximum stacksize for task 62: unlimited
  | Maximum stacksize for task 63: unlimited
  | Maximum stacksize for task 64: unlimited
  | Maximum stacksize for task 65: unlimited
  | Maximum stacksize for task 66: unlimited
  | Maximum stacksize for task 67: unlimited
  | Maximum stacksize for task 68: unlimited
  | Maximum stacksize for task 69: unlimited
  | Maximum stacksize for task 70: unlimited
  | Maximum stacksize for task 71: unlimited
  | Maximum stacksize for task 72: unlimited
  | Maximum stacksize for task 73: unlimited
  | Maximum stacksize for task 74: unlimited
  | Maximum stacksize for task 75: unlimited
  | Maximum stacksize for task 76: unlimited
  | Maximum stacksize for task 77: unlimited
  | Maximum stacksize for task 78: unlimited
  | Maximum stacksize for task 79: unlimited
  | Maximum stacksize for task 80: unlimited
  | Maximum stacksize for task 81: unlimited
  | Maximum stacksize for task 82: unlimited
  | Maximum stacksize for task 83: unlimited
  | Maximum stacksize for task 84: unlimited
  | Maximum stacksize for task 85: unlimited
  | Maximum stacksize for task 86: unlimited
  | Maximum stacksize for task 87: unlimited
  | Maximum stacksize for task 88: unlimited
  | Maximum stacksize for task 89: unlimited
  | Maximum stacksize for task 90: unlimited
  | Maximum stacksize for task 91: unlimited
  | Maximum stacksize for task 92: unlimited
  | Maximum stacksize for task 93: unlimited
  | Maximum stacksize for task 94: unlimited
  | Maximum stacksize for task 95: unlimited
  | Maximum stacksize for task 96: unlimited
  | Maximum stacksize for task 97: unlimited
  | Maximum stacksize for task 98: unlimited
  | Maximum stacksize for task 99: unlimited
  | Maximum stacksize for task 100: unlimited
  | Maximum stacksize for task 101: unlimited
  | Maximum stacksize for task 102: unlimited
  | Maximum stacksize for task 103: unlimited
  | Maximum stacksize for task 104: unlimited
  | Maximum stacksize for task 105: unlimited
  | Maximum stacksize for task 106: unlimited
  | Maximum stacksize for task 107: unlimited
  | Maximum stacksize for task 108: unlimited
  | Maximum stacksize for task 109: unlimited
  | Maximum stacksize for task 110: unlimited
  | Maximum stacksize for task 111: unlimited
  | Maximum stacksize for task 112: unlimited
  | Maximum stacksize for task 113: unlimited
  | Maximum stacksize for task 114: unlimited
  | Maximum stacksize for task 115: unlimited
  | Maximum stacksize for task 116: unlimited
  | Maximum stacksize for task 117: unlimited
  | Maximum stacksize for task 118: unlimited
  | Maximum stacksize for task 119: unlimited
  | Maximum stacksize for task 120: unlimited
  | Maximum stacksize for task 121: unlimited
  | Maximum stacksize for task 122: unlimited
  | Maximum stacksize for task 123: unlimited
  | Maximum stacksize for task 124: unlimited
  | Maximum stacksize for task 125: unlimited
  | Maximum stacksize for task 126: unlimited
  | Maximum stacksize for task 127: unlimited
  | Maximum stacksize for task 128: unlimited
  | Maximum stacksize for task 129: unlimited
  | Maximum stacksize for task 130: unlimited
  | Maximum stacksize for task 131: unlimited
  | Maximum stacksize for task 132: unlimited
  | Maximum stacksize for task 133: unlimited
  | Maximum stacksize for task 134: unlimited
  | Maximum stacksize for task 135: unlimited
  | Maximum stacksize for task 136: unlimited
  | Maximum stacksize for task 137: unlimited
  | Maximum stacksize for task 138: unlimited
  | Maximum stacksize for task 139: unlimited
  | Maximum stacksize for task 140: unlimited
  | Maximum stacksize for task 141: unlimited
  | Maximum stacksize for task 142: unlimited
  | Maximum stacksize for task 143: unlimited
  | Maximum stacksize for task 144: unlimited
  | Maximum stacksize for task 145: unlimited
  | Maximum stacksize for task 146: unlimited
  | Maximum stacksize for task 147: unlimited
  | Maximum stacksize for task 148: unlimited
  | Maximum stacksize for task 149: unlimited
  | Maximum stacksize for task 150: unlimited
  | Maximum stacksize for task 151: unlimited
  | Maximum stacksize for task 152: unlimited
  | Maximum stacksize for task 153: unlimited
  | Maximum stacksize for task 154: unlimited
  | Maximum stacksize for task 155: unlimited
  | Maximum stacksize for task 156: unlimited
  | Maximum stacksize for task 157: unlimited
  | Maximum stacksize for task 158: unlimited
  | Maximum stacksize for task 159: unlimited
  | Maximum stacksize for task 160: unlimited
  | Maximum stacksize for task 161: unlimited
  | Maximum stacksize for task 162: unlimited
  | Maximum stacksize for task 163: unlimited
  | Maximum stacksize for task 164: unlimited
  | Maximum stacksize for task 165: unlimited
  | Maximum stacksize for task 166: unlimited
  | Maximum stacksize for task 167: unlimited
  | Maximum stacksize for task 168: unlimited
  | Maximum stacksize for task 169: unlimited
  | Maximum stacksize for task 170: unlimited
  | Maximum stacksize for task 171: unlimited
  | Maximum stacksize for task 172: unlimited
  | Maximum stacksize for task 173: unlimited
  | Maximum stacksize for task 174: unlimited
  | Maximum stacksize for task 175: unlimited
  | Maximum stacksize for task 176: unlimited
  | Maximum stacksize for task 177: unlimited
  | Maximum stacksize for task 178: unlimited
  | Maximum stacksize for task 179: unlimited
  | Maximum stacksize for task 180: unlimited
  | Maximum stacksize for task 181: unlimited
  | Maximum stacksize for task 182: unlimited
  | Maximum stacksize for task 183: unlimited
  | Maximum stacksize for task 184: unlimited
  | Maximum stacksize for task 185: unlimited
  | Maximum stacksize for task 186: unlimited
  | Maximum stacksize for task 187: unlimited
  | Maximum stacksize for task 188: unlimited
  | Maximum stacksize for task 189: unlimited
  | Maximum stacksize for task 190: unlimited
  | Maximum stacksize for task 191: unlimited
  | Maximum stacksize for task 192: unlimited
  | Maximum stacksize for task 193: unlimited
  | Maximum stacksize for task 194: unlimited
  | Maximum stacksize for task 195: unlimited
  | Maximum stacksize for task 196: unlimited
  | Maximum stacksize for task 197: unlimited
  | Maximum stacksize for task 198: unlimited
  | Maximum stacksize for task 199: unlimited
  | Maximum stacksize for task 200: unlimited
  | Maximum stacksize for task 201: unlimited
  | Maximum stacksize for task 202: unlimited
  | Maximum stacksize for task 203: unlimited
  | Maximum stacksize for task 204: unlimited
  | Maximum stacksize for task 205: unlimited
  | Maximum stacksize for task 206: unlimited
  | Maximum stacksize for task 207: unlimited
  | Maximum stacksize for task 208: unlimited
  | Maximum stacksize for task 209: unlimited
  | Maximum stacksize for task 210: unlimited
  | Maximum stacksize for task 211: unlimited
  | Maximum stacksize for task 212: unlimited
  | Maximum stacksize for task 213: unlimited
  | Maximum stacksize for task 214: unlimited
  | Maximum stacksize for task 215: unlimited
  | Maximum stacksize for task 216: unlimited
  | Maximum stacksize for task 217: unlimited
  | Maximum stacksize for task 218: unlimited
  | Maximum stacksize for task 219: unlimited
  | Maximum stacksize for task 220: unlimited
  | Maximum stacksize for task 221: unlimited
  | Maximum stacksize for task 222: unlimited
  | Maximum stacksize for task 223: unlimited
  | Maximum stacksize for task 224: unlimited
  | Maximum stacksize for task 225: unlimited
  | Maximum stacksize for task 226: unlimited
  | Maximum stacksize for task 227: unlimited
  | Maximum stacksize for task 228: unlimited
  | Maximum stacksize for task 229: unlimited
  | Maximum stacksize for task 230: unlimited
  | Maximum stacksize for task 231: unlimited
  | Maximum stacksize for task 232: unlimited
  | Maximum stacksize for task 233: unlimited
  | Maximum stacksize for task 234: unlimited
  | Maximum stacksize for task 235: unlimited
  | Maximum stacksize for task 236: unlimited
  | Maximum stacksize for task 237: unlimited
  | Maximum stacksize for task 238: unlimited
  | Maximum stacksize for task 239: unlimited
  | Maximum stacksize for task 240: unlimited
  | Maximum stacksize for task 241: unlimited
  | Maximum stacksize for task 242: unlimited
  | Maximum stacksize for task 243: unlimited
  | Maximum stacksize for task 244: unlimited
  | Maximum stacksize for task 245: unlimited
  | Maximum stacksize for task 246: unlimited
  | Maximum stacksize for task 247: unlimited
  | Maximum stacksize for task 248: unlimited
  | Maximum stacksize for task 249: unlimited
  | Maximum stacksize for task 250: unlimited
  | Maximum stacksize for task 251: unlimited
  | Maximum stacksize for task 252: unlimited
  | Maximum stacksize for task 253: unlimited
  | Maximum stacksize for task 254: unlimited
  | Maximum stacksize for task 255: unlimited
  | Current stacksize for task 0: unlimited
  | Current stacksize for task 1: unlimited
  | Current stacksize for task 2: unlimited
  | Current stacksize for task 3: unlimited
  | Current stacksize for task 4: unlimited
  | Current stacksize for task 5: unlimited
  | Current stacksize for task 6: unlimited
  | Current stacksize for task 7: unlimited
  | Current stacksize for task 8: unlimited
  | Current stacksize for task 9: unlimited
  | Current stacksize for task 10: unlimited
  | Current stacksize for task 11: unlimited
  | Current stacksize for task 12: unlimited
  | Current stacksize for task 13: unlimited
  | Current stacksize for task 14: unlimited
  | Current stacksize for task 15: unlimited
  | Current stacksize for task 16: unlimited
  | Current stacksize for task 17: unlimited
  | Current stacksize for task 18: unlimited
  | Current stacksize for task 19: unlimited
  | Current stacksize for task 20: unlimited
  | Current stacksize for task 21: unlimited
  | Current stacksize for task 22: unlimited
  | Current stacksize for task 23: unlimited
  | Current stacksize for task 24: unlimited
  | Current stacksize for task 25: unlimited
  | Current stacksize for task 26: unlimited
  | Current stacksize for task 27: unlimited
  | Current stacksize for task 28: unlimited
  | Current stacksize for task 29: unlimited
  | Current stacksize for task 30: unlimited
  | Current stacksize for task 31: unlimited
  | Current stacksize for task 32: unlimited
  | Current stacksize for task 33: unlimited
  | Current stacksize for task 34: unlimited
  | Current stacksize for task 35: unlimited
  | Current stacksize for task 36: unlimited
  | Current stacksize for task 37: unlimited
  | Current stacksize for task 38: unlimited
  | Current stacksize for task 39: unlimited
  | Current stacksize for task 40: unlimited
  | Current stacksize for task 41: unlimited
  | Current stacksize for task 42: unlimited
  | Current stacksize for task 43: unlimited
  | Current stacksize for task 44: unlimited
  | Current stacksize for task 45: unlimited
  | Current stacksize for task 46: unlimited
  | Current stacksize for task 47: unlimited
  | Current stacksize for task 48: unlimited
  | Current stacksize for task 49: unlimited
  | Current stacksize for task 50: unlimited
  | Current stacksize for task 51: unlimited
  | Current stacksize for task 52: unlimited
  | Current stacksize for task 53: unlimited
  | Current stacksize for task 54: unlimited
  | Current stacksize for task 55: unlimited
  | Current stacksize for task 56: unlimited
  | Current stacksize for task 57: unlimited
  | Current stacksize for task 58: unlimited
  | Current stacksize for task 59: unlimited
  | Current stacksize for task 60: unlimited
  | Current stacksize for task 61: unlimited
  | Current stacksize for task 62: unlimited
  | Current stacksize for task 63: unlimited
  | Current stacksize for task 64: unlimited
  | Current stacksize for task 65: unlimited
  | Current stacksize for task 66: unlimited
  | Current stacksize for task 67: unlimited
  | Current stacksize for task 68: unlimited
  | Current stacksize for task 69: unlimited
  | Current stacksize for task 70: unlimited
  | Current stacksize for task 71: unlimited
  | Current stacksize for task 72: unlimited
  | Current stacksize for task 73: unlimited
  | Current stacksize for task 74: unlimited
  | Current stacksize for task 75: unlimited
  | Current stacksize for task 76: unlimited
  | Current stacksize for task 77: unlimited
  | Current stacksize for task 78: unlimited
  | Current stacksize for task 79: unlimited
  | Current stacksize for task 80: unlimited
  | Current stacksize for task 81: unlimited
  | Current stacksize for task 82: unlimited
  | Current stacksize for task 83: unlimited
  | Current stacksize for task 84: unlimited
  | Current stacksize for task 85: unlimited
  | Current stacksize for task 86: unlimited
  | Current stacksize for task 87: unlimited
  | Current stacksize for task 88: unlimited
  | Current stacksize for task 89: unlimited
  | Current stacksize for task 90: unlimited
  | Current stacksize for task 91: unlimited
  | Current stacksize for task 92: unlimited
  | Current stacksize for task 93: unlimited
  | Current stacksize for task 94: unlimited
  | Current stacksize for task 95: unlimited
  | Current stacksize for task 96: unlimited
  | Current stacksize for task 97: unlimited
  | Current stacksize for task 98: unlimited
  | Current stacksize for task 99: unlimited
  | Current stacksize for task 100: unlimited
  | Current stacksize for task 101: unlimited
  | Current stacksize for task 102: unlimited
  | Current stacksize for task 103: unlimited
  | Current stacksize for task 104: unlimited
  | Current stacksize for task 105: unlimited
  | Current stacksize for task 106: unlimited
  | Current stacksize for task 107: unlimited
  | Current stacksize for task 108: unlimited
  | Current stacksize for task 109: unlimited
  | Current stacksize for task 110: unlimited
  | Current stacksize for task 111: unlimited
  | Current stacksize for task 112: unlimited
  | Current stacksize for task 113: unlimited
  | Current stacksize for task 114: unlimited
  | Current stacksize for task 115: unlimited
  | Current stacksize for task 116: unlimited
  | Current stacksize for task 117: unlimited
  | Current stacksize for task 118: unlimited
  | Current stacksize for task 119: unlimited
  | Current stacksize for task 120: unlimited
  | Current stacksize for task 121: unlimited
  | Current stacksize for task 122: unlimited
  | Current stacksize for task 123: unlimited
  | Current stacksize for task 124: unlimited
  | Current stacksize for task 125: unlimited
  | Current stacksize for task 126: unlimited
  | Current stacksize for task 127: unlimited
  | Current stacksize for task 128: unlimited
  | Current stacksize for task 129: unlimited
  | Current stacksize for task 130: unlimited
  | Current stacksize for task 131: unlimited
  | Current stacksize for task 132: unlimited
  | Current stacksize for task 133: unlimited
  | Current stacksize for task 134: unlimited
  | Current stacksize for task 135: unlimited
  | Current stacksize for task 136: unlimited
  | Current stacksize for task 137: unlimited
  | Current stacksize for task 138: unlimited
  | Current stacksize for task 139: unlimited
  | Current stacksize for task 140: unlimited
  | Current stacksize for task 141: unlimited
  | Current stacksize for task 142: unlimited
  | Current stacksize for task 143: unlimited
  | Current stacksize for task 144: unlimited
  | Current stacksize for task 145: unlimited
  | Current stacksize for task 146: unlimited
  | Current stacksize for task 147: unlimited
  | Current stacksize for task 148: unlimited
  | Current stacksize for task 149: unlimited
  | Current stacksize for task 150: unlimited
  | Current stacksize for task 151: unlimited
  | Current stacksize for task 152: unlimited
  | Current stacksize for task 153: unlimited
  | Current stacksize for task 154: unlimited
  | Current stacksize for task 155: unlimited
  | Current stacksize for task 156: unlimited
  | Current stacksize for task 157: unlimited
  | Current stacksize for task 158: unlimited
  | Current stacksize for task 159: unlimited
  | Current stacksize for task 160: unlimited
  | Current stacksize for task 161: unlimited
  | Current stacksize for task 162: unlimited
  | Current stacksize for task 163: unlimited
  | Current stacksize for task 164: unlimited
  | Current stacksize for task 165: unlimited
  | Current stacksize for task 166: unlimited
  | Current stacksize for task 167: unlimited
  | Current stacksize for task 168: unlimited
  | Current stacksize for task 169: unlimited
  | Current stacksize for task 170: unlimited
  | Current stacksize for task 171: unlimited
  | Current stacksize for task 172: unlimited
  | Current stacksize for task 173: unlimited
  | Current stacksize for task 174: unlimited
  | Current stacksize for task 175: unlimited
  | Current stacksize for task 176: unlimited
  | Current stacksize for task 177: unlimited
  | Current stacksize for task 178: unlimited
  | Current stacksize for task 179: unlimited
  | Current stacksize for task 180: unlimited
  | Current stacksize for task 181: unlimited
  | Current stacksize for task 182: unlimited
  | Current stacksize for task 183: unlimited
  | Current stacksize for task 184: unlimited
  | Current stacksize for task 185: unlimited
  | Current stacksize for task 186: unlimited
  | Current stacksize for task 187: unlimited
  | Current stacksize for task 188: unlimited
  | Current stacksize for task 189: unlimited
  | Current stacksize for task 190: unlimited
  | Current stacksize for task 191: unlimited
  | Current stacksize for task 192: unlimited
  | Current stacksize for task 193: unlimited
  | Current stacksize for task 194: unlimited
  | Current stacksize for task 195: unlimited
  | Current stacksize for task 196: unlimited
  | Current stacksize for task 197: unlimited
  | Current stacksize for task 198: unlimited
  | Current stacksize for task 199: unlimited
  | Current stacksize for task 200: unlimited
  | Current stacksize for task 201: unlimited
  | Current stacksize for task 202: unlimited
  | Current stacksize for task 203: unlimited
  | Current stacksize for task 204: unlimited
  | Current stacksize for task 205: unlimited
  | Current stacksize for task 206: unlimited
  | Current stacksize for task 207: unlimited
  | Current stacksize for task 208: unlimited
  | Current stacksize for task 209: unlimited
  | Current stacksize for task 210: unlimited
  | Current stacksize for task 211: unlimited
  | Current stacksize for task 212: unlimited
  | Current stacksize for task 213: unlimited
  | Current stacksize for task 214: unlimited
  | Current stacksize for task 215: unlimited
  | Current stacksize for task 216: unlimited
  | Current stacksize for task 217: unlimited
  | Current stacksize for task 218: unlimited
  | Current stacksize for task 219: unlimited
  | Current stacksize for task 220: unlimited
  | Current stacksize for task 221: unlimited
  | Current stacksize for task 222: unlimited
  | Current stacksize for task 223: unlimited
  | Current stacksize for task 224: unlimited
  | Current stacksize for task 225: unlimited
  | Current stacksize for task 226: unlimited
  | Current stacksize for task 227: unlimited
  | Current stacksize for task 228: unlimited
  | Current stacksize for task 229: unlimited
  | Current stacksize for task 230: unlimited
  | Current stacksize for task 231: unlimited
  | Current stacksize for task 232: unlimited
  | Current stacksize for task 233: unlimited
  | Current stacksize for task 234: unlimited
  | Current stacksize for task 235: unlimited
  | Current stacksize for task 236: unlimited
  | Current stacksize for task 237: unlimited
  | Current stacksize for task 238: unlimited
  | Current stacksize for task 239: unlimited
  | Current stacksize for task 240: unlimited
  | Current stacksize for task 241: unlimited
  | Current stacksize for task 242: unlimited
  | Current stacksize for task 243: unlimited
  | Current stacksize for task 244: unlimited
  | Current stacksize for task 245: unlimited
  | Current stacksize for task 246: unlimited
  | Current stacksize for task 247: unlimited
  | Current stacksize for task 248: unlimited
  | Current stacksize for task 249: unlimited
  | Current stacksize for task 250: unlimited
  | Current stacksize for task 251: unlimited
  | Current stacksize for task 252: unlimited
  | Current stacksize for task 253: unlimited
  | Current stacksize for task 254: unlimited
  | Current stacksize for task 255: unlimited

  Consistency checks for the contents of control.in are next.

  MPI_IN_PLACE appears to work with this MPI implementation.
  | Keeping use_mpi_in_place .true. (see manual).
  Target number of points in a grid batch is not set. Defaulting to  100
  Method for grid partitioning is not set. Defaulting to parallel hash+maxmin partitioning.
  Batch size limit is not set. Defaulting to    200
  By default, will store active basis functions for each batch.
  If in need of memory, prune_basis_once .false. can be used to disable this option.
  communication_type for Hartree potential was not specified.
  Defaulting to calc_hartree .
  Pulay mixer: Number of initial linear mixing iterations not set.
  Defaulting to    0 iterations.
  Work space size for distributed Hartree potential not set.
  Defaulting to   0.200000E+03 MB.
  Algorithm-dependent basis array size parameters:
  | n_max_pulay                         :        8
  Presetting      1001 iterations before the initial mixing cycle
  is restarted anyway using the sc_init_iter criterion / keyword.
  Presetting a factor      1.000 between actual scf density residual
  and density convergence criterion sc_accuracy_rho below which sc_init_iter
  takes no effect.
  No maximum number of relaxation steps, defaulting to     1000
  Default initial Hessian is Lindh matrix (thres = 15.00) plus  0.200000E+01 eV/A^2 times unity.
  No maximum energy tolerance for TRM/BFGS moves, defaulting to   0.150000E-02
  Maximum energy tolerance by which TRM/BFGS trajectory may increase over multiple steps:   0.300000E-02
  No harmonic length scale. Defaulting to   0.250000E-01 A.
  No trust radius initializer. Defaulting to   0.200000E+00 A.
  Forces evaluation will include force correction term due to incomplete self-consistency (default).
 * Notice: The s.c.f. convergence criterion sc_accuracy_rho was not provided.
 * We used to stop in this case, and ask the user to provide reasonable
 * scf convergence criteria. However, this led some users to employ criteria
 * that led to extremely long run times, e.g., for simple relaxation.
 * We now preset a default value for sc_accuracy_rho if it is not set.
 * You may still wish to check if this setting is too tight or too loose for your needs.
 * Based on n_atoms and forces and force-correction status, FHI-aims chose sc_accuracy_rho =  0.800000E-05 .
  Handling of forces: Unphysical translation and rotation will be removed from forces.
  No accuracy limit for integral partition fn. given. Defaulting to  0.1000E-14.
  No threshold value for u(r) in integrations given. Defaulting to  0.1000E-05.
  No accuracy for occupation numbers given. Defaulting to  0.1000E-12.
  No threshold value for occupation numbers given. Defaulting to  0.0000E+00.
  No accuracy for fermi level given. Defaulting to  0.1000E-19.
  Maximum # of iterations to find E_F not set. Defaulting to  200.
  Preferred method for the eigenvalue solver ('KS_method') not specified in 'control.in'.
  Calling BLACS routine to test compilation state
  The best choice would be ELPA (via ELSI), but your version of FHI-aims is compiled without ScaLAPACK support.
  Defaulting to LAPACK (via ELSI) instead (serial solution, time will not improve with more CPUs).
  Will not use alltoall communication since running on < 1024 CPUs.
  Threshold for basis singularities not set.
  Default threshold for basis singularities:  0.1000E-04
  partition_type (choice of integration weights) for integrals was not specified.
  | Using a version of the partition function of Stratmann and coworkers ('stratmann_sparse').
  | At each grid point, the set of atoms used to build the partition table is smoothly restricted to
  | only those atoms whose free-atom density would be non-zero at that grid point.
  Partitioning for Hartree potential was not defined. Using partition_type for integrals.
  | Adjusted default value of keyword multip_moments_threshold to:       0.10000000E-11
  | This value may affect high angular momentum components of the Hartree potential in periodic systems.
  No q(lm)/r^(l+1) cutoff set for long-range Hartree potential.
  | Using default value of  0.100000E-09 .
  | Verify using the multipole_threshold keyword.
  Defaulting to new monopole extrapolation.
  Density update method: automatic selection selected.
  Geometry relaxation: A file "geometry.in.next_step" is written out by default after each step.
  | This file contains the geometry of the current relaxation step as well as
  | the current Hessian matrix needed to restart the relaxation algorithm.
  | If you do not want part or all of this information, use the keywords
  | "write_restart_geometry" or "hessian_to_restart_geometry" to switch the output off.
  Charge integration errors on the 3D integration grid will be compensated
  by explicit normalization and distribution of residual charges.
  Use the "compensate_multipole_errors" flag to change this behaviour.
  Set 'collect_eigenvectors' to be '.true.' for all serial calculations. This is mandatory.
  Set 'collect_eigenvectors' to be '.true.' for use_density_matrix .false.
  Set 'collect_eigenvectors' to be '.true.' for KS_method lapack_fast and serial.

  Consistency checks for the contents of geometry.in are next.

  Number of empty states per atom not set in control.in - providing a guess from actual geometry.
  | Total number of empty states used during s.c.f. cycle:       20
  If you use a very high smearing, use empty_states (per atom!) in control.in to increase this value.

  Structure-dependent array size parameters: 
  | Maximum number of distinct radial functions  :       64
  | Maximum number of basis functions            :      136
  | Number of Kohn-Sham states (occupied + empty):       96
------------------------------------------------------------

------------------------------------------------------------
          Preparing all fixed parts of the calculation.
------------------------------------------------------------
  Determining machine precision:
     2.2250738585072014E-308
  Setting up grids for atomic and cluster calculations.

  Creating wave function, potential, and density for free atoms.
  Runtime choices for atomic solver:
  | atomic solver xc        : PBE
  | compute density gradient: 1
  | compute kinetic density : F

  Species: Pb

  List of occupied orbitals and eigenvalues:
    n    l              occ      energy [Ha]    energy [eV]
    1    0           2.0000     -3583.277747    -97505.9486
    2    0           2.0000      -591.290564    -16089.8349
    3    0           2.0000      -139.817779     -3804.6353
    4    0           2.0000       -31.500228      -857.1648
    5    0           2.0000        -5.285996      -143.8393
    6    0           2.0000        -0.435949       -11.8628
    2    1           6.0000      -505.946867    -13767.5147
    3    1           6.0000      -115.940668     -3154.9061
    4    1           6.0000       -23.734264      -645.8422
    5    1           6.0000        -3.143583       -85.5412
    6    1           2.0000        -0.122377        -3.3300
    3    2          10.0000       -91.725457     -2495.9767
    4    2          10.0000       -14.775440      -402.0602
    5    2          10.0000        -0.771604       -20.9964
    4    3          14.0000        -4.888066      -133.0110


  Species: Cs

  List of occupied orbitals and eigenvalues:
    n    l              occ      energy [Ha]    energy [eV]
    1    0           2.0000     -1370.517962    -37293.6912
    2    0           2.0000      -207.940437     -5658.3472
    3    0           2.0000       -42.963368     -1169.0927
    4    0           2.0000        -8.088324      -220.0945
    5    0           2.0000        -0.975113       -26.5342
    6    0           1.0000        -0.070511        -1.9187
    2    1           6.0000      -186.423076     -5072.8300
    3    1           6.0000       -36.102172      -982.3901
    4    1           6.0000        -5.901007      -160.5746
    5    1           6.0000        -0.489794       -13.3280
    3    2          10.0000       -26.056965      -709.0461
    4    2          10.0000        -2.722006       -74.0695


  Species: Br

  List of occupied orbitals and eigenvalues:
    n    l              occ      energy [Ha]    energy [eV]
    1    0           2.0000      -497.115120    -13527.1907
    2    0           2.0000       -63.852263     -1737.5085
    3    0           2.0000        -8.750857      -238.1229
    4    0           2.0000        -0.739442       -20.1212
    2    1           6.0000       -56.304457     -1532.1222
    3    1           6.0000        -6.375550      -173.4875
    4    1           5.0000        -0.288435        -7.8487
    3    2          10.0000        -2.452229       -66.7286


  Species: I

  List of occupied orbitals and eigenvalues:
    n    l              occ      energy [Ha]    energy [eV]
    1    0           2.0000     -1258.773426    -34252.9677
    2    0           2.0000      -188.593391     -5131.8873
    3    0           2.0000       -37.851314     -1029.9867
    4    0           2.0000        -6.635220      -180.5535
    5    0           2.0000        -0.638654       -17.3787
    2    1           6.0000      -169.180733     -4603.6420
    3    1           6.0000       -31.613243      -860.2401
    4    1           6.0000        -4.685544      -127.5002
    5    1           5.0000        -0.259505        -7.0615
    3    2          10.0000       -22.293102      -606.6262
    4    2          10.0000        -1.847107       -50.2623


  Adding cutoff potential to free-atom effective potential.
  Creating fixed part of basis set: Ionic, confined, hydrogenic.

  Pb                   hydrogenic:

  List of hydrogenic basis orbitals: 
    n    l      effective z      eigenvalue [eV]  inner max. [A]     outer max. [A]     outer radius [A]   
    3    1         2.300000        -7.5446           0.685138           2.629026           5.474563
    4    3         7.600000       -49.1164           1.117244           1.117244           4.785726
    3    2         3.500000       -18.5140           1.358613           1.358613           5.408044
    3    0         3.200000       -15.4178           0.122229           2.161957           5.474563

  List of extra hydrogenic orbitals for auxiliary basis: 
    n    l      effective z      eigenvalue [eV]  inner max. [A]     outer max. [A]     outer radius [A]   
    5    4         9.800000       -52.2674           1.342105           1.342105           5.149953


  Cs                   hydrogenic:

  List of hydrogenic basis orbitals: 
    n    l      effective z      eigenvalue [eV]  inner max. [A]     outer max. [A]     outer radius [A]   
    3    2         3.900000       -22.9933           1.227066           1.227066           5.725753
    4    3         6.400000       -34.8303           1.320454           1.320454           5.452499
    3    1         2.300000        -7.9576           0.690770           2.749654           6.962745
    4    0         2.700000        -5.3203           0.142706           4.375516           6.962745
    4    2         3.900000       -12.9111           0.926308           2.887453           6.962745


  Br                   ion:

  List of free ionic orbitals and eigenvalues:
    n    l      energy [Ha]    energy [eV]
    1    0      -498.089905    -13553.7159
    2    0       -64.804923     -1763.4317
    3    0        -9.695815      -263.8366
    4    0        -1.567249       -42.6470
    2    1       -57.257825     -1558.0647
    3    1        -7.319837      -199.1829
    4    1        -1.062256       -28.9055
    3    2        -3.393643       -92.3457


  List of ionic basis orbitals and eigenvalues:
    n    l      energy [Ha]    energy [eV]    outer radius [A]
    4    0        -1.567243       -42.6468       3.870700


  Br                   hydrogenic:

  List of hydrogenic basis orbitals: 
    n    l      effective z      eigenvalue [eV]  inner max. [A]     outer max. [A]     outer radius [A]   
    3    2         4.600000       -31.9882           1.033692           1.033692           5.003611
    2    1         1.700000        -9.8152           1.241738           1.241738           5.450650
    4    3         7.600000       -49.1164           1.112363           1.112363           4.823428


  I                    ion:

  List of free ionic orbitals and eigenvalues:
    n    l      energy [Ha]    energy [eV]
    1    0     -1259.616275    -34275.9028
    2    0      -189.407359     -5154.0365
    3    0       -38.660218     -1051.9981
    4    0        -7.437098      -202.3737
    5    0        -1.350533       -36.7499
    2    1      -169.994585     -4625.7880
    3    1       -32.422014      -882.2479
    4    1        -5.486232      -149.2880
    5    1        -0.922314       -25.0974
    3    2       -23.101712      -628.6296
    4    2        -2.642763       -71.9132


  List of ionic basis orbitals and eigenvalues:
    n    l      energy [Ha]    energy [eV]    outer radius [A]
    5    0        -1.350527       -36.7497       4.219496


  I                    hydrogenic:

  List of hydrogenic basis orbitals: 
    n    l      effective z      eigenvalue [eV]  inner max. [A]     outer max. [A]     outer radius [A]   
    3    2         4.000000       -24.1871           1.197867           1.197867           5.388222
    4    3         6.400000       -34.8302           1.320938           1.320938           5.322752
    2    1         1.600000        -8.6828           1.320938           1.320938           5.454497

  Creating atomic-like basis functions for current effective potential.

  Species Pb                  :

  List of atomic basis orbitals and eigenvalues:
    n    l      energy [Ha]    energy [eV]    outer radius [A]
    1    0     -3583.277747    -97505.9486       0.114982
    2    0      -591.290564    -16089.8349       0.298366
    3    0      -139.817779     -3804.6353       0.621304
    4    0       -31.500228      -857.1648       1.278055
    5    0        -5.285996      -143.8393       2.934797
    6    0        -0.435949       -11.8628       5.342333
    2    1      -505.946867    -13767.5147       0.317173
    3    1      -115.940668     -3154.9061       0.668590
    4    1       -23.734264      -645.8422       1.426700
    5    1        -3.143583       -85.5412       3.657164
    6    1        -0.122377        -3.3300       5.474563
    3    2       -91.725457     -2495.9767       0.719474
    4    2       -14.775440      -402.0602       1.713844
    5    2        -0.771604       -20.9964       5.087378
    4    3        -4.888066      -133.0110       2.597082


  Species Cs                  :

  List of atomic basis orbitals and eigenvalues:
    n    l      energy [Ha]    energy [eV]    outer radius [A]
    1    0     -1370.517962    -37293.6912       0.184474
    2    0      -207.940437     -5658.3472       0.496574
    3    0       -42.963368     -1169.0927       1.085864
    4    0        -8.088324      -220.0945       2.403678
    5    0        -0.975113       -26.5342       6.161523
    6    0        -0.070511        -1.9187       6.962745
    2    1      -186.423076     -5072.8300       0.508865
    3    1       -36.102172      -982.3901       1.154308
    4    1        -5.901007      -160.5746       2.749654
    5    1        -0.489794       -13.3280       6.630458
    3    2       -26.056965      -709.0461       1.288561
    4    2        -2.722006       -74.0695       3.732580


  Species Br                  :

  List of atomic basis orbitals and eigenvalues:
    n    l      energy [Ha]    energy [eV]    outer radius [A]
    1    0      -497.115120    -13527.1907       0.300717
    2    0       -63.852263     -1737.5085       0.850048
    3    0        -8.750857      -238.1229       2.232922
    4    0        -0.739442       -20.1212       5.190525
    2    1       -56.304457     -1532.1222       0.881802
    3    1        -6.375550      -173.4875       2.523283
    4    1        -0.288435        -7.8487       5.384421
    3    2        -2.452229       -66.7286       3.685976


  Species I                   :

  List of atomic basis orbitals and eigenvalues:
    n    l      energy [Ha]    energy [eV]    outer radius [A]
    1    0     -1258.773426    -34252.9677       0.191435
    2    0      -188.593391     -5131.8873       0.515313
    3    0       -37.851314     -1029.9867       1.154731
    4    0        -6.635220      -180.5535       2.619390
    5    0        -0.638654       -17.3787       5.258077
    2    1      -169.180733     -4603.6420       0.528067
    3    1       -31.613243      -860.2401       1.227516
    4    1        -4.685544      -127.5002       3.033270
    5    1        -0.259505        -7.0615       5.388222
    3    2       -22.293102      -606.6262       1.387137
    4    2        -1.847107       -50.2623       4.377119

  Assembling full basis from fixed parts.
  | Species Pb :   atomic orbital   1 s accepted.
  | Species Pb :   atomic orbital   2 s accepted.
  | Species Pb :   atomic orbital   3 s accepted.
  | Species Pb :   atomic orbital   4 s accepted.
  | Species Pb :   atomic orbital   5 s accepted.
  | Species Pb :   atomic orbital   6 s accepted.
  | Species Pb :    hydro orbital   3 s accepted.
  | Species Pb :   atomic orbital   2 p accepted.
  | Species Pb :   atomic orbital   3 p accepted.
  | Species Pb :   atomic orbital   4 p accepted.
  | Species Pb :   atomic orbital   5 p accepted.
  | Species Pb :   atomic orbital   6 p accepted.
  | Species Pb :    hydro orbital   3 p accepted.
  | Species Pb :   atomic orbital   3 d accepted.
  | Species Pb :   atomic orbital   4 d accepted.
  | Species Pb :   atomic orbital   5 d accepted.
  | Species Pb :    hydro orbital   3 d accepted.
  | Species Pb :   atomic orbital   4 f accepted.
  | Species Pb :    hydro orbital   4 f accepted.
  | Species Cs :   atomic orbital   1 s accepted.
  | Species Cs :   atomic orbital   2 s accepted.
  | Species Cs :   atomic orbital   3 s accepted.
  | Species Cs :   atomic orbital   4 s accepted.
  | Species Cs :   atomic orbital   5 s accepted.
  | Species Cs :   atomic orbital   6 s accepted.
  | Species Cs :    hydro orbital   4 s accepted.
  | Species Cs :   atomic orbital   2 p accepted.
  | Species Cs :   atomic orbital   3 p accepted.
[...]
     65       2.00000          -0.824880          -22.44613
     66       2.00000          -0.824786          -22.44358
     67       2.00000          -0.818614          -22.27563
     68       2.00000          -0.712188          -19.37961
     69       2.00000          -0.699357          -19.03048
     70       2.00000          -0.488792          -13.30070
     71       2.00000          -0.301630           -8.20778
     72       2.00000          -0.277348           -7.54702
     73       2.00000          -0.269146           -7.32384
     74       2.00000          -0.254895           -6.93604
     75       2.00000          -0.247038           -6.72225
     76       2.00000          -0.246611           -6.71064
     77       0.00000          -0.142332           -3.87305
     78       0.00000          -0.078920           -2.14753
     79       0.00000          -0.063925           -1.73950
     80       0.00000           0.094683            2.57644
     81       0.00000           0.140683            3.82817
     82       0.00000           0.147140            4.00388
     83       0.00000           0.159723            4.34627
     84       0.00000           0.191528            5.21173
     85       0.00000           0.193980            5.27845
     86       0.00000           0.196610            5.35002
     87       0.00000           0.198472            5.40070
     88       0.00000           0.200777            5.46342
     89       0.00000           0.243969            6.63873
     90       0.00000           0.252433            6.86906
     91       0.00000           0.265906            7.23568
     92       0.00000           0.274816            7.47813
     93       0.00000           0.275308            7.49152
     94       0.00000           0.316493            8.61221
     95       0.00000           0.323776            8.81040
     96       0.00000           0.344644            9.37825

  Highest occupied state (VBM) at     -6.71063767 eV
  | Occupation number:      2.00000000

  Lowest unoccupied state (CBM) at    -3.87305070 eV
  | Occupation number:      0.00000000

  Overall HOMO-LUMO gap:      2.83758697 eV.

  | Chemical Potential                          :    -5.50160309 eV
  | Note that, for insulating systems, the printed 'chemical potential' value is not uniquely defined.
  | It can be anywhere in the energy gap, as long as it correctly separates occupied and unoccupied states.
  | In systems with a gap, the physically relevant chemical potential is the VBM or HOMO.

  Self-consistency cycle converged.


------------------------------------------------------------
  End self-consistency iteration #     7       :  max(cpu_time)    wall_clock(cpu1)
  | Time for this iteration                     :        0.088 s           0.048 s
  | Charge density & force component update     :        0.017 s           0.018 s
  | Density mixing                              :        0.044 s           0.003 s
  | Hartree multipole update                    :        0.002 s           0.001 s
  | Hartree multipole summation                 :        0.010 s           0.011 s
  | Hartree pot. SCF incomplete forces          :        0.006 s           0.005 s
  | Integration                                 :        0.005 s           0.004 s
  | Solution of K.-S. eqns.                     :        0.003 s           0.004 s
  | Total energy evaluation                     :        0.000 s           0.000 s

  Partial memory accounting:
  | Current value for overall tracked memory usage:
  |   Minimum:        0.323 MB (on task   0)
  |   Maximum:        0.323 MB (on task   0)
  |   Average:        0.323 MB
  | Peak value for overall tracked memory usage:
  |   Minimum:        2.991 MB (on task  87 after allocating d_wave)
  |   Maximum:        3.855 MB (on task  55 after allocating d_wave)
  |   Average:        3.683 MB
  | Largest tracked array allocation so far:
  |   Minimum:        0.932 MB (hessian_basis_wave on task 109)
  |   Maximum:        1.071 MB (hessian_basis_wave on task  26)
  |   Average:        1.034 MB
  Note:  These values currently only include a subset of arrays which are explicitly tracked.
  The "true" memory usage will be greater.
------------------------------------------------------------
  Obtaining max. number of non-zero basis functions in each batch .
  Evaluating KS electron density on previously omitted grid points.
  Evaluating non-empirical van der Waals correction (Tkatchenko/Scheffler 2009).
  Performing Hirshfeld analysis of fragment charges and moments.
  ----------------------------------------------------------------------
  | Atom     1: Pb
  |   Hirshfeld charge        :      0.48715994
  |   Free atom volume        :    190.30456155
  |   Hirshfeld volume        :    158.20873865
  |   Hirshfeld dipole vector :     -0.10213021      -0.10213024       0.00000000
  |   Hirshfeld dipole moment :      0.14443395
  |   Hirshfeld second moments:      0.46358954       0.06518538      -0.00000000
  |                                  0.06518538       0.46358957      -0.00000000
  |                                 -0.00000000      -0.00000000       1.07274475
  ----------------------------------------------------------------------
  | Atom     2: Br
  |   Hirshfeld charge        :     -0.24357928
  |   Free atom volume        :     95.32616356
  |   Hirshfeld volume        :     98.95474039
  |   Hirshfeld dipole vector :      0.05677925       0.00861603      -0.00000000
  |   Hirshfeld dipole moment :      0.05742925
  |   Hirshfeld second moments:     -0.04019524      -0.01627748      -0.00000000
  |                                 -0.01627748      -0.19668236       0.00000000
  |                                 -0.00000000       0.00000000      -0.15787972
  ----------------------------------------------------------------------
  | Atom     3: Br
  |   Hirshfeld charge        :     -0.24357940
  |   Free atom volume        :     95.32616356
  |   Hirshfeld volume        :     98.95474595
  |   Hirshfeld dipole vector :      0.00861603       0.05677923      -0.00000000
  |   Hirshfeld dipole moment :      0.05742924
  |   Hirshfeld second moments:     -0.19668251      -0.01627750      -0.00000000
  |                                 -0.01627750      -0.04019533       0.00000000
  |                                 -0.00000000       0.00000000      -0.15787988
  ----------------------------------------------------------------------


  Total energy components:
  | Sum of eigenvalues            :      -16823.76294532 Ha     -457797.88224203 eV
  | XC energy correction          :        -577.93964552 Ha      -15726.53791213 eV
  | XC potential correction       :         754.78336500 Ha       20538.70035916 eV
  | Free-atom electrostatic energy:      -10288.51557002 Ha     -279964.75310993 eV
  | Hartree energy correction     :          -0.57444078 Ha         -15.63132897 eV
  | vdW energy correction         :          -0.00057746 Ha          -0.01571346 eV
  | Entropy correction            :          -0.00000000 Ha          -0.00000000 eV
  | ---------------------------
  | Total energy                  :      -26936.00981410 Ha     -732966.11994737 eV
  | Total energy, T -> 0          :      -26936.00981410 Ha     -732966.11994737 eV  <-- do not rely on this value for anything but (periodic) metals
  | Electronic free energy        :      -26936.00981410 Ha     -732966.11994737 eV

  Derived energy quantities:
  | Kinetic energy                :       29963.77146540 Ha      815355.70641508 eV
  | Electrostatic energy          :      -56321.84105652 Ha    -1532595.27273686 eV
  | Energy correction for multipole
  | error in Hartree potential    :           0.00182345 Ha           0.04961855 eV
  | Sum of eigenvalues per atom                           :     -152599.29408068 eV
  | Total energy (T->0) per atom                          :     -244322.03998246 eV  <-- do not rely on this value for anything but (periodic) metals
  | Electronic free energy per atom                       :     -244322.03998246 eV

  atomic forces [eV/Ang]:
  -----------------------
  atom #    1
   Hellmann-Feynman              : -0.536554E+00 -0.536570E+00  0.498612E-09
   Ionic forces                  :  0.000000E+00  0.000000E+00  0.000000E+00
   Multipole                     : -0.120946E+00 -0.120946E+00 -0.288121E-09
   Hartree pot. SCF incomplete   : -0.390996E-05 -0.391031E-05 -0.879736E-09
   Pulay + GGA                   :  0.658595E+00  0.658613E+00  0.599801E-08
   Van der Waals                 : -0.127557E-02 -0.127557E-02  0.397926E-34
   ----------------------------------------------------------------
   Total forces(   1)            : -0.184856E-03 -0.182262E-03  0.532876E-08
  atom #    2
   Hellmann-Feynman              :  0.163684E+02 -0.207368E+01 -0.808315E-11
   Ionic forces                  :  0.000000E+00  0.000000E+00  0.000000E+00
   Multipole                     : -0.100463E+00 -0.392981E-01  0.178179E-11
   Hartree pot. SCF incomplete   :  0.428662E-06  0.308912E-05  0.120395E-10
   Pulay + GGA                   : -0.162727E+02  0.211609E+01  0.701887E-09
   Van der Waals                 :  0.458632E-02 -0.331075E-02 -0.209076E-34
   ----------------------------------------------------------------
   Total forces(   2)            : -0.208816E-03 -0.192060E-03  0.707625E-09
  atom #    3
   Hellmann-Feynman              : -0.207368E+01  0.163684E+02  0.398397E-11
   Ionic forces                  :  0.000000E+00  0.000000E+00  0.000000E+00
   Multipole                     : -0.392981E-01 -0.100463E+00 -0.109690E-10
   Hartree pot. SCF incomplete   :  0.309455E-05  0.418181E-06  0.369212E-10
   Pulay + GGA                   :  0.211609E+01 -0.162727E+02 -0.140784E-09
   Van der Waals                 : -0.331075E-02  0.458633E-02 -0.188850E-34
   ----------------------------------------------------------------
   Total forces(   3)            : -0.191822E-03 -0.211170E-03 -0.110848E-09

  Timings for VdW correction (Tkatchenko-Scheffler 2009 or later):
  | CPU time:        0.044 s, Wall clock time:        0.004 s.
  Removing unitary transformations (pure translations, rotations) from forces on atoms.
  Atomic forces before filtering:
  | Net force on center of mass :  -0.585494E-03 -0.585493E-03  0.592554E-08 eV/A
  | Net torque on center of mass:  -0.512617E-08  0.276490E-08  0.111751E-08 eV
  Atomic forces after filtering:
  | Net force on center of mass :   0.125224E-18  0.234114E-18 -0.155273E-23 eV/A
  | Net torque on center of mass:  -0.838744E-25  0.200127E-23  0.162599E-18 eV

  Energy and forces in a compact form:
  | Total energy uncorrected      :         -0.732966119947370E+06 eV
  | Total energy corrected        :         -0.732966119947370E+06 eV  <-- do not rely on this value for anything but (periodic) metals
  | Electronic free energy        :         -0.732966119947370E+06 eV
  Total atomic forces (unitary forces cleaned) [eV/Ang]:
  |    1          0.103090530420777E-04          0.129022782268554E-04          0.368576387222607E-24
  |    2         -0.136516066959807E-04          0.310347842605795E-05         -0.129296012126027E-23
  |    3          0.334255365390315E-05         -0.160057566529131E-04         -0.628345517867117E-24

  ------------------------------------ 
  Start decomposition of the XC Energy 
  ------------------------------------ 
  X and C from original XC functional choice 
  Hartree-Fock Energy :          0.000000000 Ha              0.000000000 eV
  X Energy            :       -569.489071637 Ha         -15496.586096861 eV
  C Energy            :         -8.450573887 Ha           -229.951815273 eV
  XC Energy w/o HF    :       -577.939645524 Ha         -15726.537912134 eV
  Total XC Energy     :       -577.939645524 Ha         -15726.537912134 eV
  ------------------------------------ 
  LDA X and C from self-consistent density 
  X Energy LDA        :       -544.336583628 Ha         -14812.152074508 eV
  C Energy LDA        :        -14.967438916 Ha           -407.284735334 eV
  ------------------------------------ 
  End decomposition of the XC Energy 
  ------------------------------------ 

------------------------------------------------------------
  Relaxation / MD: End force evaluation.       :  max(cpu_time)    wall_clock(cpu1)
  | Time for this force evaluation              :        0.381 s           0.550 s

------------------------------------------------------------
  Geometry optimization: Attempting to predict improved coordinates.

  Removing unitary transformations (pure translations, rotations) from forces on atoms.
  Atomic forces before filtering:
  | Net force on center of mass :   0.125224E-18  0.234114E-18 -0.155273E-23 eV/A
  | Net torque on center of mass:  -0.838744E-25  0.200127E-23  0.162599E-18 eV
  Atomic forces after filtering:
  | Net force on center of mass :   0.136113E-20  0.000000E+00  0.604194E-39 eV/A
  | Net torque on center of mass:   0.187425E-39 -0.705556E-40  0.140253E-20 eV
  Net remaining forces (excluding translations, rotations) in present geometry:
  || Forces on atoms   || =   0.160058E-04 eV/A.
  Maximum force component is  0.160058E-04 eV/A.
  Present geometry is converged.

------------------------------------------------------------
  Final atomic structure:
                         x [A]             y [A]             z [A]
            atom         0.08232430        0.08232415        0.00000000  Pb
            atom         2.70132272       -0.18364700       -0.00000000  Br
            atom        -0.18364702        2.70132285       -0.00000000  Br
------------------------------------------------------------

------------------------------------------------------------------------------
  Final output of selected total energy values:

  The following output summarizes some interesting total energy values
  at the end of a run (AFTER all relaxation, molecular dynamics, etc.).

  | Total energy of the DFT / Hartree-Fock s.c.f. calculation      :        -732966.119947370 eV
  | Final zero-broadening corrected energy (caution - metals only) :        -732966.119947370 eV
  | For reference only, the value of 1 Hartree used in FHI-aims is :             27.211384500 eV

  Before relying on these values, please be sure to understand exactly which
  total energy value is referred to by a given number. Different objects may
  all carry the same name 'total energy'. Definitions:

  Total energy of the DFT / Hartree-Fock s.c.f. calculation:
  | Note that this energy does not include ANY quantities calculated after the
  | s.c.f. cycle, in particular not ANY RPA, MP2, etc. many-body perturbation terms.

  Final zero-broadening corrected energy:
  | For metallic systems only, a broadening of the occupation numbers at the Fermi
  | level can be extrapolated back to zero broadening by an electron-gas inspired
  | formula. For all systems that are not real metals, this value can be
  | meaningless and should be avoided.

------------------------------------------------------------------------------
  Methods described in the following list of references were used in this FHI-aims run.
  If you publish the results, please make sure to cite these reference if they apply.
  FHI-aims is an academic code, and for our developers (often, Ph.D. students
  and postdocs), scientific credit in the community is essential.
  Thank you for helping us!

  For any use of FHI-aims, please cite:

    Volker Blum, Ralf Gehrke, Felix Hanke, Paula Havu, Ville Havu,
    Xinguo Ren, Karsten Reuter, and Matthias Scheffler
    'Ab initio molecular simulations with numeric atom-centered orbitals'
    Computer Physics Communications 180, 2175-2196 (2009)
    http://doi.org/10.1016/j.cpc.2009.06.022


  The ELSI infrastructure was used in your run to solve the Kohn-Sham electronic structure.
  Please check out http://elsi-interchange.org to learn more.
  If scalability is important for your project, please acknowledge ELSI by citing:

    V. W-z. Yu, F. Corsetti, A. Garcia, W. P. Huhn, M. Jacquelin, W. Jia,
    B. Lange, L. Lin, J. Lu, W. Mi, A. Seifitokaldani, A. Vazquez-Mayagoitia,
    C. Yang, H. Yang, and V. Blum
    'ELSI: A unified software interface for Kohn-Sham electronic structure solvers'
    Computer Physics Communications 222, 267-285 (2018).
    http://doi.org/10.1016/j.cpc.2017.09.007


  For the real-space grid partitioning and parallelization used in this calculation, please cite:

    Ville Havu, Volker Blum, Paula Havu, and Matthias Scheffler,
    'Efficient O(N) integration for all-electron electronic structure calculation'
    'using numerically tabulated basis functions'
    Journal of Computational Physics 228, 8367-8379 (2009).
    http://doi.org/10.1016/j.jcp.2009.08.008

  Of course, there are many other important community references, e.g., those cited in the
  above references. Our list is limited to references that describe implementations in the
  FHI-aims code. The reason is purely practical (length of this list) - please credit others as well.

------------------------------------------------------------
          Leaving FHI-aims.
          Date     :  20230815, Time     :  135931.898

          Computational steps:
          | Number of self-consistency cycles          :           61
          | Number of SCF (re)initializations          :            6
          | Number of relaxation steps                 :            5

          Detailed time accounting                     :  max(cpu_time)    wall_clock(cpu1)
          | Total time                                  :        6.632 s           6.990 s
          | Preparation time                            :        1.043 s           1.043 s
          | Boundary condition initalization            :        0.000 s           0.000 s
          | Grid partitioning                           :        0.331 s           0.330 s
          | Preloading free-atom quantities on grid     :        0.022 s           0.025 s
          | Free-atom superposition energy              :        0.005 s           0.003 s
          | Total time for integrations                 :        0.297 s           0.296 s
          | Total time for solution of K.-S. equations  :        0.210 s           0.214 s
          | Total time for EV reorthonormalization      :        0.003 s           0.002 s
          | Total time for density & force components   :        0.382 s           0.423 s
          | Total time for mixing                       :        2.455 s           0.179 s
          | Total time for Hartree multipole update     :        0.115 s           0.113 s
          | Total time for Hartree multipole sum        :        0.315 s           0.319 s
          | Total time for total energy evaluation      :        0.038 s           0.013 s
          | Total time NSC force correction             :        0.035 s           0.034 s
          | Total time for scaled ZORA corrections      :        0.000 s           0.000 s
          | Total time for vdW correction               :        0.274 s           0.030 s

          Partial memory accounting:
          | Residual value for overall tracked memory usage across tasks:     0.000000 MB (should be 0.000000 MB)
          | Peak values for overall tracked memory usage:
          |   Minimum:        2.991 MB (on task  87 after allocating d_wave)
          |   Maximum:        3.855 MB (on task  55 after allocating d_wave)
          |   Average:        3.683 MB
          | Largest tracked array allocation:
          |   Minimum:        0.932 MB (hessian_basis_wave on task 109)
          |   Maximum:        1.071 MB (hessian_basis_wave on task  26)
          |   Average:        1.034 MB
          Note:  These values currently only include a subset of arrays which are explicitly tracked.
          The "true" memory usage will be greater.

          Have a nice day.
------------------------------------------------------------
