------------------------------------------------------------
          Invoking FHI-aims ...

          When using FHI-aims, please cite the following reference:

            Volker Blum, Ralf Gehrke, Felix Hanke, Paula Havu,
            Ville Havu, Xinguo Ren, Karsten Reuter, and Matthias Scheffler,
            'Ab Initio Molecular Simulations with Numeric Atom-Centered Orbitals',
            Computer Physics Communications 180, 2175-2196 (2009)

          In addition, many other developments in FHI-aims are likely important for
          your particular application. A partial list of references is given at the end of
          this file. Thank you for giving credit to the authors of these developments.

          For any questions about FHI-aims, please visit our slack channel at

            https://fhi-aims.slack.com

          and our main development and support site at

            https://aims-git.rz-berlin.mpg.de .

          The latter site, in particular, has a wiki to collect information, as well
          as an issue tracker to log discussions, suggest improvements, and report issues
          or bugs. https://aims-git.rz-berlin.mpg.de is also the main development site
          of the project and all new and updated code versions can be obtained there.
          Please send an email to aims-coordinators@fhi-berlin.mpg.de and we will add
          you to these sites. They are for you and everyone is welcome there.

------------------------------------------------------------



  Date     :  20230814, Time     :  141917.030
  Time zero on CPU 1             :   0.566800000000000E-01  s.
  Internal wall clock time zero  :           461254757.030  s.

  FHI-aims created a unique identifier for this run for later identification
  aims_uuid : 73334346-E910-4AA7-A083-4A610AEBC6E1

  Build configuration of the current instance of FHI-aims
  -------------------------------------------------------
  FHI-aims version      : 221103
  Commit number         : GITDIR-NOTFOUND
  CMake host system     : Linux-5.14.21-150400.24.46_12.0.70-cray_shasta_c
  CMake version         : 3.21.3
  Fortran compiler      : /opt/cray/pe/craype/2.7.19/bin/ftn (GNU) version 11.2.0
  Fortran compiler flags: -O2 -fallow-argument-mismatch -ffree-line-length-none
  C compiler            : /opt/cray/pe/craype/2.7.19/bin/cc (GNU) version 11.2.0
  C compiler flags      : -O2
  HIP compiler          :
  HIP compiler flags    :
  HIP GPU arch          :
  Using MPI
  Using ScaLAPACK
  Using LibXC
  Using i-PI
  Using RLSY
  Linking against:

  Using        1 parallel tasks.
  Task        0 on host ln03 reporting.

  Performing system and environment tests:
  *** Environment variable OMP_NUM_THREADS is not set
  *** For performance reasons you might want to set it to 1
  | Checking for ScaLAPACK...
  | Testing pdtran()...
  | All pdtran() tests passed.

  Obtaining array dimensions for all initial allocations:
  
  -----------------------------------------------------------------------
  Parsing control.in (first pass over file, find array dimensions only).
  The contents of control.in will be repeated verbatim below
  unless switched off by setting 'verbatim_writeout .false.' .
  in the first line of control.in .
  -----------------------------------------------------------------------
  
  xc                 pbe
  vdw_correction_hirshfeld_alkali
  spin               none
  relativistic       atomic_zora scalar
  
  #k-points
  k_grid	2	2	2
  
  # SCF convergence
  occupation_type    gaussian 0.01
  mixer              pulay
  n_max_pulay        8            # default value 8
  charge_mix_param   0.2          # non-metallic conservative value
  sc_accuracy_eev    1E-3         # eigen value check
  #sc_accuracy_rho    1E-6         # density check
  #sc_accuracy_etot   1E-5
  #sc_accuracy_forces 1E-4
  
  sc_accuracy_forces not_checked
  sc_iter_limit   4000
  
  # Relaxation
  relax_unit_cell  full
  relax_geometry   bfgs 1.e-3
  ################################################################################
  #
  #  FHI-aims code project
  #  Volker Blum, 2017
  #
  #  Suggested "intermediate" defaults for Pb atom (to be pasted into control.in file)
  #
  ################################################################################
    species        Pb
  #     global species definitions
      nucleus             82
      mass                207.2
  #
      l_hartree           6
  #
      cut_pot             4.0  2.0  1.0
      basis_dep_cutoff    1e-4
  #
      radial_base         74 7.0
      radial_multiplier   2
      angular_grids specified
        division   0.1064  110
        division   0.1579  194
        division   0.2150  302
        division   1.0164  434
  #      division   1.1544  590
  #      division   1.1970  770
  #      division   7.7779  974
  #      outer_grid  974
        outer_grid  434
   ################################################################################
  #
  #  Definition of "minimal" basis
  #
  ################################################################################
  #     valence basis states
      valence      6  s   2.
      valence      6  p   2.
      valence      5  d  10.
      valence      4  f  14.
  #     ion occupancy
      ion_occ     6  s    1.
      ion_occ     6  p    1.
      ion_occ     5  d   10.
      ion_occ     4  f   14.
  ################################################################################
  #
  #  Suggested additional basis functions. For production calculations,
  #  uncomment them one after another (the most important basis functions are
  #  listed first).
  #
  #  Constructed for dimers: 2.225, 2.50, 2.88, 3.625, 4.50
  #
  ################################################################################
  #  "First tier" - max. impr. -156.54 meV, min. impr. -14.49 meV
       hydro 3 p 2.3
       hydro 4 f 7.6
       hydro 3 d 3.5
       for_aux    hydro 5 g 9.8
       hydro 3 s 3.2
  #  "Second tier" - max. impr. -4.38  meV, min. impr. -0.30 meV
  #     hydro 6 h 12.8
  #     hydro 3 d 2.4
  #     hydro 5 f 7.2
  #     hydro 5 f 14.8
  #     hydro 4 p 5.4
  #     ionic 6 s auto
  #  "Third tier" - max. impr. -0.86 meV, min. impr. -0.16 meV
  #     hydro 5 p 14.4
  #     hydro 5 g 8.2
  #     hydro 4 d 4.6
  #     hydro 6 h 12.4
  #     hydro 6 d 12.4
  #     hydro 4 s 4
  #     hydro 5 g 32.8
  #     hydro 5 f 9.4
  #  Further functions: -0.10 meV and below
  #     hydro 5 f 17.6
  #     hydro 7 p 19.6
  ################################################################################
  #
  #  FHI-aims code project
  #  Volker Blum, Fritz Haber Institute Berlin, 2009
  #  Tong Zhu, Will Huhn and Volker Blum, Duke University 2018
  #
  #  Suggested "intermediate" defaults for Cs atom (to be pasted into control.in file)
  #
  #  Rb, Sr, Cs and Ba are very large atoms. This requires uncomfortably large
  #  cut_pot radii (the high cut_pot values are especially costly for hybrid DFT
  #  calculations, both regarding time and memory). Additionally, since they are
  #  relatively heavy elements, high-accuracy basis set convergence actually
  #  requires more radial functions than for their light-element counterparts.
  #
  #  Compared to the "tight" settings, the "intermediate" settings for Cs are
  #  reduced in the following way:
  #
  #  - cut_pot from 6.0 Angstrom to 5.5 Angstrom
  #
  #  The cut_pot value has a noticeable effect particularly for neutral situations
  #  (the Cs dimer is a good example) and we were not comfortable with reducing it more.
  #  ("intermediate" still implies high accuracy.) However, a comparison to the "light"
  #  settings (which are not crazy) shows that further reductions are possible in many
  #  situations, if the cut_pot value for Cs is the bottleneck. (Note that some internal
  #  cutoffs in current FHI-aims are set according to the largest atom, and so in principle,
  #  even a single Cs atom in a large structure can have a noticeable effect on memory and
  #  speed.)
  #
  ################################################################################
    species          Cs
  #     global species definitions
      nucleus        55
      mass           132.9054519
  #
      l_hartree      6
  #
      cut_pot        5.5  2.0  1.0
      basis_dep_cutoff    1e-4
  #
      radial_base    65  7.0
      radial_multiplier  2
      angular_grids specified
        division   0.7542  110
        division   1.0056  194
        division   1.2887  302
        division   1.4138  434
  #      division   1.5042  590
  #      division   1.6519  770
  #      outer_grid  974
        outer_grid  434
  ################################################################################
  #
  #  Definition of "minimal" basis
  #
  ################################################################################
  #     valence basis states
      valence      6  s   1.
      valence      5  p   6.
      valence      4  d  10.
  #     ion occupancy
      ion_occ      6  s   0.
      ion_occ      5  p   6.
      ion_occ      4  d  10.
  ################################################################################
  #
  #  Suggested additional basis functions. For production calculations,
  #  uncomment them one after another (the most important basis functions are
  #  listed first).
  #
  #  Constructed for dimers: 2.70, 3.50, 4.50, 5.50 Ang
  #
  ################################################################################
  #  "First tier" - improvements: -138.41 meV to -7.10 meV
       hydro 3 d 3.9
       hydro 4 f 6.4
       hydro 3 p 2.3
       hydro 4 s 2.7
  #  "Second tier" - improvements: -6.08 meV to -0.77 meV
       hydro 4 d 3.9
  #     hydro 4 f 20.8
  #     hydro 5 g 8.6
  #     hydro 5 f 41.6
  #     hydro 6 h 11.6
  #     hydro 4 p 7.0
  #     hydro 4 s 3.8
  #  "Third tier" - max. impr. -0.54 meV, min. impr. -0.09 meV
  #     hydro 5 d 10
  #     hydro 5 f 17.6
  #     hydro 4 p 3.5
  #     hydro 5 f 7.4
  #     hydro 1 s 2.3
  #     hydro 5 g 11.6
  #  One more function - impr. -0.05 meV
  #     hydro 6 d 17.2
  ################################################################################
  #
  #  FHI-aims code project
  #  Volker Blum, 2018
  #
  #  Suggested "intermediate" defaults for Br atom (to be pasted into control.in file)
  #
  #  2020/09/15 These "intermediate" settings are identical to past "tight" defaults
  #             and differ only in the "g" function that is now included in "tight".
  #
  ################################################################################
    species        Br
  #     global species definitions
      nucleus             35
      mass                79.904
  #
      l_hartree           6
  #
      cut_pot             4.0          2.0  1.0
      basis_dep_cutoff    1e-4
  #
      radial_base         56 7.0
      radial_multiplier   2
      angular_grids       specified
        division   0.0871  110
        division   0.1400  194
        division   0.7896  302
        division   0.8837  434
  #      division   0.9869  590
  #      division   1.0613  770
  #      division   2.6835  974
  #      outer_grid  974
        outer_grid  434
  ################################################################################
  #
  #  Definition of "minimal" basis
  #
  ################################################################################
  #     valence basis states
      valence      4  s   2.
      valence      4  p   5.
      valence      3  d  10.
  #     ion occupancy
      ion_occ      4  s   1.
      ion_occ      4  p   4.
      ion_occ      3  d  10.
  ################################################################################
  #
  #  Suggested additional basis functions. For production calculations,
  #  uncomment them one after another (the most important basis functions are
  #  listed first).
  #
  #  Constructed for dimers: 1.90 A, 2.25 A, 2.75 A, 3.25 A, 4.00 A
  #
  ################################################################################
  #  "First tier" - improvements: -247.24 meV to -20.97 meV
       hydro 3 d 4.6
       hydro 2 p 1.7
       hydro 4 f 7.6
       ionic 4 s auto
  #  "Second tier" - improvements: -9.01 meV to -0.73 meV
  #     hydro 5 g 10.4
  #     hydro 3 d 4.1
  #     hydro 6 h 14.8
  #     hydro 4 p 4.7
  #     hydro 1 s 0.7
  #     hydro 4 f 12.4
  #  "Third tier" - improvements: -0.26 meV and below
  #     hydro 5 f 14.8
  #     hydro 5 d 7.8
  #     hydro 5 g 14.4
  #     ionic 4 p auto
  #     hydro 3 s 3.2
  #  "Fourth tier" - improvements: -0.09 meV and below
  #     hydro 5 f 25.6
  #     hydro 5 d 11.2
  #     hydro 3 p 3.9
  #     hydro 6 h 16.8
  #     hydro 5 g 13.2
  #     hydro 5 s 5.4
  ################################################################################
  #
  #  FHI-aims code project
  #  Volker Blum, 2018
  #
  #  Suggested "intermediate" defaults for I atom (to be pasted into control.in file)
  #
  #  2020/09/15 These "intermediate" settings are identical to past "tight" defaults
  #             and differ only in the "g" function that is now included in "tight".
  #
  ################################################################################
    species          I
  #     global species definitions
      nucleus        53
      mass           126.90447
  #
      l_hartree      6
  #
      cut_pot        4.0  2.0  1.0
      basis_dep_cutoff    1e-4
  #
      radial_base    64  7.0
      radial_multiplier  2
      angular_grids specified
        division   0.1103  110
        division   0.1515  194
        division   0.9554  302
  #      division   1.1196  590
  #      division   1.1922  770
  #      division   6.1948  974
  #      outer_grid  974
        outer_grid  434
  ################################################################################
  #
  #  Definition of "minimal" basis
  #
  ################################################################################
  #     valence basis states
      valence      5  s   2.
      valence      5  p   5.
      valence      4  d  10.
  #     ion occupancy
      ion_occ      5  s   1.
      ion_occ      5  p   4.
      ion_occ      4  d  10.
  ################################################################################
  #
  #  Suggested additional basis functions. For production calculations,
  #  uncomment them one after another (the most important basis functions are
  #  listed first).
  #
  #  Constructed for dimers: 2.22, 2.65, 3.25, 4.25 Ang
  #
  ################################################################################
  #  "First tier" - improvements: -270.74 meV to -21.24 meV
       hydro 3 d 4
       hydro 4 f 6.4
       hydro 2 p 1.6
       ionic 5 s auto
  #  "Second tier" - improvements: -16.39 meV to -0.39 meV
  #     hydro 5 g 9.4
  #     hydro 4 f 18.4
  #     hydro 6 h 12.4
  #     hydro 4 p 4.5
  #     hydro 3 d 4.2
  #     hydro 3 s 3.0
  #  "Third tier" - max. impr. -0.76 meV, min. impr. -0.06 meV
  #     hydro 5 f 15.6
  #     hydro 5 g 12
  #     hydro 5 d 16
  #     hydro 4 f 42
  #     hydro 6 h 15.2
  #     ionic 5 p auto
  #     hydro 1 s 6.2
  #  Further functions that fell out of the optimization: -0.10 meV and below
  #     hydro 4 f 7
  #     hydro 6 p 9
  #     hydro 2 s 6.4
  
  -----------------------------------------------------------------------
  Completed first pass over input file control.in .
  -----------------------------------------------------------------------
  
  
  -----------------------------------------------------------------------
  Parsing geometry.in (first pass over file, find array dimensions only).
  The contents of geometry.in will be repeated verbatim below
  unless switched off by setting 'verbatim_writeout .false.' .
  in the first line of geometry.in .
  -----------------------------------------------------------------------
  
  #
  # This is the geometry file that corresponds to the current relaxation step.
  # If you do not want this file to be written, set the "write_restart_geometry" flag to .false.
  #  aims_uuid : 4C06065F-7F80-44D0-AEDB-1CC26A0AB03F
  #
  lattice_vector     12.63260688     -0.00000000     -0.00000001
  lattice_vector     -0.00000000     12.63261893      0.00000000
  lattice_vector     -0.00000001      0.00000000     12.63261994
  atom_frac      -0.00000086     -0.00000064     -0.00000056 Cs
  atom_frac      -0.00000082      0.00000057      0.49999725 Cs
  atom_frac      -0.00000139      0.49999721      0.00000060 Cs
  atom_frac      -0.00000154      0.49999939      0.50000159 Cs
  atom_frac       0.49999744     -0.00000077     -0.00000051 Cs
  atom_frac       0.49999690      0.00000032      0.49999639 Cs
  atom_frac       0.49999666      0.49999693      0.00000042 Cs
  atom_frac       0.49999500      0.49999950      0.49999903 Cs
  atom_frac       0.25000203      0.24999387      0.24999593 Pb
  atom_frac       0.24999488      0.25000754      0.74999062 Pb
  atom_frac       0.25000134      0.74999032      0.25000871 Pb
  atom_frac       0.24999481      0.75000510      0.75000711 Pb
  atom_frac       0.75000321      0.24999324      0.24999316 Pb
  atom_frac       0.74999738      0.25001021      0.74998807 Pb
  atom_frac       0.75000571      0.74998826      0.25000737 Pb
  atom_frac       0.74999534      0.75000882      0.75000337 Pb
  atom_frac       0.25000038      0.24999956     -0.00000415 I
  atom_frac       0.25000144      0.25000058      0.50000001 I
  atom_frac       0.25000149      0.74999775      0.00000740 I
  atom_frac       0.25000206      0.74999851      0.50001213 I
  atom_frac       0.74999789      0.24999983     -0.00000660 I
  atom_frac       0.74999778      0.25000120      0.49999722 I
  atom_frac       0.74999833      0.74999809      0.00000385 I
  atom_frac       0.74999915      0.74999877      0.50000868 I
  atom_frac       0.25000172     -0.00000529      0.24999913 I
  atom_frac       0.25000157      0.00000824      0.75000056 I
  atom_frac       0.25000140      0.49999709      0.24999839 I
  atom_frac       0.25000080      0.50001132      0.75000007 I
  atom_frac       0.74999843     -0.00000768      0.24999974 I
  atom_frac       0.74999896      0.00001190      0.75000048 I
  atom_frac       0.74999884      0.49999452      0.24999839 I
  atom_frac       0.74999866      0.50001511      0.75000009 I
  atom_frac       0.00000439      0.24999898      0.24999916 I
  atom_frac      -0.00000120      0.25000006      0.74999997 I
  atom_frac       0.00000653      0.74999773      0.24999901 I
  atom_frac      -0.00000195      0.74999851      0.75000051 I
  atom_frac       0.50000721      0.24999921      0.24999857 I
  atom_frac       0.50000079      0.25000030      0.75000001 I
  atom_frac       0.50000909      0.74999725      0.24999870 I
  atom_frac       0.50000016      0.74999859      0.75000012 I
  #
  # What follows is the current estimated Hessian matrix constructed by the BFGS algorithm.
  # This is NOT the true Hessian matrix of the system.
  # If you do not want this information here, switch it off using the "hessian_to_restart_geometry" keyword.
  #
  trust_radius             0.2000000030
  hessian_file
  
  -----------------------------------------------------------------------
  Completed first pass over input file geometry.in .
  -----------------------------------------------------------------------
  

  Basic array size parameters:
  | Number of species                 :        4
  | Number of atoms                   :       40
  | Number of lattice vectors         :        3
  | Max. basis fn. angular momentum   :        4
  | Max. atomic/ionic basis occupied n:        6
  | Max. number of basis fn. types    :        3
  | Max. radial fns per species/type  :       15
  | Max. logarithmic grid size        :     1491
  | Max. radial integration grid size :      149
  | Max. angular integration grid size:      434
  | Max. angular grid division number :        8
  | Radial grid for Hartree potential :     1491
  | Number of spin channels           :        1

------------------------------------------------------------
          Reading file control.in.
------------------------------------------------------------
  XC: Using PBE gradient-corrected functionals.
  Spin treatment: No spin polarisation.
  Scalar relativistic treatment of kinetic energy: on-site free-atom approximation to ZORA.
  Found k-point grid:         2         2         2
  Occupation type: Gaussian broadening, width =   0.100000E-01 eV.
  Using pulay charge density mixing.
  Pulay mixing - number of memorized iterations:    8
  Charge density mixing - mixing parameter:     0.2000
  Convergence accuracy of sum of eigenvalues:  0.1000E-02
  | Force self-consistency will not be checked explicitly.
  Maximum number of s.-c. iterations  :  4000
  Geometry relaxation: Modified BFGS - TRM (trust radius method) for lattice optimization.
  Convergence accuracy for geometry relaxation: Maximum force <   0.100000E-02 eV/A.

  Reading configuration options for species Pb                  .
  | Found nuclear charge :  82.0000
  | Found atomic mass :    207.19999999999999      amu
  | Found l_max for Hartree potential  :   6
  | Found cutoff potl. onset [A], width [A], scale factor :    4.00000    2.00000    1.00000
  | Threshold for basis-dependent cutoff potential is   0.100000E-03
  | Found data for basic radial integration grid :    74 points, outermost radius =    7.000 A
  | Found multiplier for basic radial grid :   2
  | Found angular grid specification: user-specified.
  | Specified grid contains     5 separate shells.
  | Check grid settings after all constraints further below.
  | Found free-atom valence shell :  6 s   2.000
  | Found free-atom valence shell :  6 p   2.000
  | Found free-atom valence shell :  5 d  10.000
  | Found free-atom valence shell :  4 f  14.000
  | Found free-ion valence shell :  6 s   1.000
  | Found free-ion valence shell :  6 p   1.000
  | Found free-ion valence shell :  5 d  10.000
  | Found free-ion valence shell :  4 f  14.000
  | Found hydrogenic basis function :  3 p   2.300
  | Found hydrogenic basis function :  4 f   7.600
  | Found hydrogenic basis function :  3 d   3.500
  | Found hydrogenic extended basis function :  5 g   9.800
  | Found hydrogenic basis function :  3 s   3.200
  Species Pb                  : Missing cutoff potential type.
  Defaulting to exp(1/x)/(1-x)^2 type cutoff potential.
  Species Pb: No 'logarithmic' tag. Using default grid for free atom:
  | Default logarithmic grid data [bohr] : 0.1000E-03 0.1000E+03 0.1012E+01
  Species Pb: On-site basis accuracy parameter (for Gram-Schmidt orthonormalisation) not specified.
  Using default value basis_acc =  0.1000000E-03.
  Species Pb                  : Using default innermost maximum threshold i_radial=  2 for radial functions.
  Species Pb                  : Default cutoff onset for free atom density etc. : 0.40000000E+01 AA.
  Species Pb                  : Basic radial grid will be enhanced according to radial_multiplier =   2, to contain   149 grid points.

  Reading configuration options for species Cs                  .
  | Found nuclear charge :  55.0000
  | Found atomic mass :    132.90545190000000      amu
  | Found l_max for Hartree potential  :   6
  | Found cutoff potl. onset [A], width [A], scale factor :    5.50000    2.00000    1.00000
  | Threshold for basis-dependent cutoff potential is   0.100000E-03
  | Found data for basic radial integration grid :    65 points, outermost radius =    7.000 A
  | Found multiplier for basic radial grid :   2
  | Found angular grid specification: user-specified.
  | Specified grid contains     5 separate shells.
  | Check grid settings after all constraints further below.
  | Found free-atom valence shell :  6 s   1.000
  | Found free-atom valence shell :  5 p   6.000
  | Found free-atom valence shell :  4 d  10.000
  | Found free-ion valence shell :  6 s   0.000
  | Found free-ion valence shell :  5 p   6.000
  | Found free-ion valence shell :  4 d  10.000
  | Found hydrogenic basis function :  3 d   3.900
  | Found hydrogenic basis function :  4 f   6.400
  | Found hydrogenic basis function :  3 p   2.300
  | Found hydrogenic basis function :  4 s   2.700
  | Found hydrogenic basis function :  4 d   3.900
  Species Cs                  : Missing cutoff potential type.
  Defaulting to exp(1/x)/(1-x)^2 type cutoff potential.
  Species Cs: No 'logarithmic' tag. Using default grid for free atom:
  | Default logarithmic grid data [bohr] : 0.1000E-03 0.1000E+03 0.1012E+01
  Species Cs: On-site basis accuracy parameter (for Gram-Schmidt orthonormalisation) not specified.
  Using default value basis_acc =  0.1000000E-03.
  Species Cs                  : Using default innermost maximum threshold i_radial=  2 for radial functions.
  Species Cs                  : Default cutoff onset for free atom density etc. : 0.55000000E+01 AA.
  Species Cs                  : Basic radial grid will be enhanced according to radial_multiplier =   2, to contain   131 grid points.

  Reading configuration options for species Br                  .
  | Found nuclear charge :  35.0000
  | Found atomic mass :    79.903999999999996      amu
  | Found l_max for Hartree potential  :   6
  | Found cutoff potl. onset [A], width [A], scale factor :    4.00000    2.00000    1.00000
  | Threshold for basis-dependent cutoff potential is   0.100000E-03
  | Found data for basic radial integration grid :    56 points, outermost radius =    7.000 A
  | Found multiplier for basic radial grid :   2
  | Found angular grid specification: user-specified.
  | Specified grid contains     5 separate shells.
  | Check grid settings after all constraints further below.
  | Found free-atom valence shell :  4 s   2.000
  | Found free-atom valence shell :  4 p   5.000
  | Found free-atom valence shell :  3 d  10.000
  | Found free-ion valence shell :  4 s   1.000
  | Found free-ion valence shell :  4 p   4.000
  | Found free-ion valence shell :  3 d  10.000
  | Found hydrogenic basis function :  3 d   4.600
  | Found hydrogenic basis function :  2 p   1.700
  | Found hydrogenic basis function :  4 f   7.600
  | Found ionic basis function :  4 s , default cutoff radius.
  Species Br                  : Missing cutoff potential type.
  Defaulting to exp(1/x)/(1-x)^2 type cutoff potential.
  Species Br: No 'logarithmic' tag. Using default grid for free atom:
  | Default logarithmic grid data [bohr] : 0.1000E-03 0.1000E+03 0.1012E+01
  | Will include ionic basis functions of  2.0-fold positive Br                   ion.
  Species Br: On-site basis accuracy parameter (for Gram-Schmidt orthonormalisation) not specified.
  Using default value basis_acc =  0.1000000E-03.
  Species Br                  : Using default innermost maximum threshold i_radial=  2 for radial functions.
  Species Br                  : Default cutoff onset for free atom density etc. : 0.40000000E+01 AA.
  Species Br                  : Basic radial grid will be enhanced according to radial_multiplier =   2, to contain   113 grid points.

  Reading configuration options for species I                   .
  | Found nuclear charge :  53.0000
  | Found atomic mass :    126.90447000000000      amu
  | Found l_max for Hartree potential  :   6
  | Found cutoff potl. onset [A], width [A], scale factor :    4.00000    2.00000    1.00000
  | Threshold for basis-dependent cutoff potential is   0.100000E-03
  | Found data for basic radial integration grid :    64 points, outermost radius =    7.000 A
  | Found multiplier for basic radial grid :   2
  | Found angular grid specification: user-specified.
  | Specified grid contains     4 separate shells.
  | Check grid settings after all constraints further below.
  | Found free-atom valence shell :  5 s   2.000
  | Found free-atom valence shell :  5 p   5.000
  | Found free-atom valence shell :  4 d  10.000
  | Found free-ion valence shell :  5 s   1.000
  | Found free-ion valence shell :  5 p   4.000
  | Found free-ion valence shell :  4 d  10.000
  | Found hydrogenic basis function :  3 d   4.000
  | Found hydrogenic basis function :  4 f   6.400
  | Found hydrogenic basis function :  2 p   1.600
  | Found ionic basis function :  5 s , default cutoff radius.
  Species I                   : Missing cutoff potential type.
  Defaulting to exp(1/x)/(1-x)^2 type cutoff potential.
  Species I : No 'logarithmic' tag. Using default grid for free atom:
  | Default logarithmic grid data [bohr] : 0.1000E-03 0.1000E+03 0.1012E+01
  | Will include ionic basis functions of  2.0-fold positive I                    ion.
  Species I : On-site basis accuracy parameter (for Gram-Schmidt orthonormalisation) not specified.
  Using default value basis_acc =  0.1000000E-03.
  Species I                   : Using default innermost maximum threshold i_radial=  2 for radial functions.
  Species I                   : Default cutoff onset for free atom density etc. : 0.40000000E+01 AA.
  Species I                   : Basic radial grid will be enhanced according to radial_multiplier =   2, to contain   129 grid points.

  Finished reading input file 'control.in'.

------------------------------------------------------------


------------------------------------------------------------
          Reading geometry description geometry.in.
------------------------------------------------------------
 * Large trust radius value found - resetting to the current value of max_atomic_move,      0.20000000 A.
  Found keyword 'hessian_file', indicating that this is the continuation of a structure optimization.
  Verifying the existence of the file 'hessian.aims' on all processors
 ***
 *** Error - the expected file 'hessian.aims' does not exist.
 ***
 *** This file was requested in 'geometry.in' by the keyword 'hessian_file'.
 *** Usually, this is the case when a local structure optimization is continued from a previous run,
 *** making use of the previously accumulated information about the Hessian matrix.
 *** Having the previous Hessian matrix available can mean a dramatic speedup of the subsequent
 *** structure optimization, which is why we store it, and which is why we stop the code at this
 *** point to inform the user.
 ***
 *** There are two paths to proceed:
 ***
 *** (1) Copy the missing 'hessian.aims' file from the proceding relaxation run over to the present
 ***     working directory, along with the 'geometry.in.next_step' file used to restart the run.
 ***
 *** (2) Alternatively, just remove the 'hessian_file' keyword from the 'geometry.in.next_step' file
 ***     and continue from a newly initialized Hessian, not from a stored version.
 ***
 *** Note: The Hessian is stored as a separate file since it will be read and stored in parallel
 *** throughout the following run, avoiding a potential memory bottleneck (per processor).
 ***
 *** The expected file 'hessian.aims' was not found.
 
 *** The expected file 'hessian.aims' was not found.
 
(base) wkjee@ln03:/work/e05/e05/wkjee/Software/gulpklmc/klmc3_tf_interface.fhiaims.14082023/test_calculation> cp /work/e05/e05/wkjee/PAX/VVUQ/Perovskite/FHI22_test/222CsPbX/I/128/hessian.aims .
(base) wkjee@ln03:/work/e05/e05/wkjee/Software/gulpklmc/klmc3_tf_interface.fhiaims.14082023/test_calculation> ./../aims.x 
------------------------------------------------------------
          Invoking FHI-aims ...

          When using FHI-aims, please cite the following reference:

            Volker Blum, Ralf Gehrke, Felix Hanke, Paula Havu,
            Ville Havu, Xinguo Ren, Karsten Reuter, and Matthias Scheffler,
            'Ab Initio Molecular Simulations with Numeric Atom-Centered Orbitals',
            Computer Physics Communications 180, 2175-2196 (2009)

          In addition, many other developments in FHI-aims are likely important for
          your particular application. A partial list of references is given at the end of
          this file. Thank you for giving credit to the authors of these developments.

          For any questions about FHI-aims, please visit our slack channel at

            https://fhi-aims.slack.com

          and our main development and support site at

            https://aims-git.rz-berlin.mpg.de .

          The latter site, in particular, has a wiki to collect information, as well
          as an issue tracker to log discussions, suggest improvements, and report issues
          or bugs. https://aims-git.rz-berlin.mpg.de is also the main development site
          of the project and all new and updated code versions can be obtained there.
          Please send an email to aims-coordinators@fhi-berlin.mpg.de and we will add
          you to these sites. They are for you and everyone is welcome there.

------------------------------------------------------------



  Date     :  20230814, Time     :  141925.355
  Time zero on CPU 1             :   0.213020000000000E-01  s.
  Internal wall clock time zero  :           461254765.355  s.

  FHI-aims created a unique identifier for this run for later identification
  aims_uuid : E6A44D22-7538-4115-A538-E91BF8B4B53B

  Build configuration of the current instance of FHI-aims
  -------------------------------------------------------
  FHI-aims version      : 221103
  Commit number         : GITDIR-NOTFOUND
  CMake host system     : Linux-5.14.21-150400.24.46_12.0.70-cray_shasta_c
  CMake version         : 3.21.3
  Fortran compiler      : /opt/cray/pe/craype/2.7.19/bin/ftn (GNU) version 11.2.0
  Fortran compiler flags: -O2 -fallow-argument-mismatch -ffree-line-length-none
  C compiler            : /opt/cray/pe/craype/2.7.19/bin/cc (GNU) version 11.2.0
  C compiler flags      : -O2
  HIP compiler          :
  HIP compiler flags    :
  HIP GPU arch          :
  Using MPI
  Using ScaLAPACK
  Using LibXC
  Using i-PI
  Using RLSY
  Linking against:

  Using        1 parallel tasks.
  Task        0 on host ln03 reporting.

  Performing system and environment tests:
  *** Environment variable OMP_NUM_THREADS is not set
  *** For performance reasons you might want to set it to 1
  | Checking for ScaLAPACK...
  | Testing pdtran()...
  | All pdtran() tests passed.

  Obtaining array dimensions for all initial allocations:
  
  -----------------------------------------------------------------------
  Parsing control.in (first pass over file, find array dimensions only).
  The contents of control.in will be repeated verbatim below
  unless switched off by setting 'verbatim_writeout .false.' .
  in the first line of control.in .
  -----------------------------------------------------------------------
  
  xc                 pbe
  vdw_correction_hirshfeld_alkali
  spin               none
  relativistic       atomic_zora scalar
  
  #k-points
  k_grid	2	2	2
  
  # SCF convergence
  occupation_type    gaussian 0.01
  mixer              pulay
  n_max_pulay        8            # default value 8
  charge_mix_param   0.2          # non-metallic conservative value
  sc_accuracy_eev    1E-3         # eigen value check
  #sc_accuracy_rho    1E-6         # density check
  #sc_accuracy_etot   1E-5
  #sc_accuracy_forces 1E-4
  
  sc_accuracy_forces not_checked
  sc_iter_limit   4000
  
  # Relaxation
  relax_unit_cell  full
  relax_geometry   bfgs 1.e-3
  ################################################################################
  #
  #  FHI-aims code project
  #  Volker Blum, 2017
  #
  #  Suggested "intermediate" defaults for Pb atom (to be pasted into control.in file)
  #
  ################################################################################
    species        Pb
  #     global species definitions
      nucleus             82
      mass                207.2
  #
      l_hartree           6
  #
      cut_pot             4.0  2.0  1.0
      basis_dep_cutoff    1e-4
  #
      radial_base         74 7.0
      radial_multiplier   2
      angular_grids specified
        division   0.1064  110
        division   0.1579  194
        division   0.2150  302
        division   1.0164  434
  #      division   1.1544  590
  #      division   1.1970  770
  #      division   7.7779  974
  #      outer_grid  974
        outer_grid  434
   ################################################################################
  #
  #  Definition of "minimal" basis
  #
  ################################################################################
  #     valence basis states
      valence      6  s   2.
      valence      6  p   2.
      valence      5  d  10.
      valence      4  f  14.
  #     ion occupancy
      ion_occ     6  s    1.
      ion_occ     6  p    1.
      ion_occ     5  d   10.
      ion_occ     4  f   14.
  ################################################################################
  #
  #  Suggested additional basis functions. For production calculations,
  #  uncomment them one after another (the most important basis functions are
  #  listed first).
  #
  #  Constructed for dimers: 2.225, 2.50, 2.88, 3.625, 4.50
  #
  ################################################################################
  #  "First tier" - max. impr. -156.54 meV, min. impr. -14.49 meV
       hydro 3 p 2.3
       hydro 4 f 7.6
       hydro 3 d 3.5
       for_aux    hydro 5 g 9.8
       hydro 3 s 3.2
  #  "Second tier" - max. impr. -4.38  meV, min. impr. -0.30 meV
  #     hydro 6 h 12.8
  #     hydro 3 d 2.4
  #     hydro 5 f 7.2
  #     hydro 5 f 14.8
  #     hydro 4 p 5.4
  #     ionic 6 s auto
  #  "Third tier" - max. impr. -0.86 meV, min. impr. -0.16 meV
  #     hydro 5 p 14.4
  #     hydro 5 g 8.2
  #     hydro 4 d 4.6
  #     hydro 6 h 12.4
  #     hydro 6 d 12.4
  #     hydro 4 s 4
  #     hydro 5 g 32.8
  #     hydro 5 f 9.4
  #  Further functions: -0.10 meV and below
  #     hydro 5 f 17.6
  #     hydro 7 p 19.6
  ################################################################################
  #
  #  FHI-aims code project
  #  Volker Blum, Fritz Haber Institute Berlin, 2009
  #  Tong Zhu, Will Huhn and Volker Blum, Duke University 2018
  #
  #  Suggested "intermediate" defaults for Cs atom (to be pasted into control.in file)
  #
  #  Rb, Sr, Cs and Ba are very large atoms. This requires uncomfortably large
  #  cut_pot radii (the high cut_pot values are especially costly for hybrid DFT
  #  calculations, both regarding time and memory). Additionally, since they are
  #  relatively heavy elements, high-accuracy basis set convergence actually
  #  requires more radial functions than for their light-element counterparts.
  #
  #  Compared to the "tight" settings, the "intermediate" settings for Cs are
  #  reduced in the following way:
  #
  #  - cut_pot from 6.0 Angstrom to 5.5 Angstrom
  #
  #  The cut_pot value has a noticeable effect particularly for neutral situations
  #  (the Cs dimer is a good example) and we were not comfortable with reducing it more.
  #  ("intermediate" still implies high accuracy.) However, a comparison to the "light"
  #  settings (which are not crazy) shows that further reductions are possible in many
  #  situations, if the cut_pot value for Cs is the bottleneck. (Note that some internal
  #  cutoffs in current FHI-aims are set according to the largest atom, and so in principle,
  #  even a single Cs atom in a large structure can have a noticeable effect on memory and
  #  speed.)
  #
  ################################################################################
    species          Cs
  #     global species definitions
      nucleus        55
      mass           132.9054519
  #
      l_hartree      6
  #
      cut_pot        5.5  2.0  1.0
      basis_dep_cutoff    1e-4
  #
      radial_base    65  7.0
      radial_multiplier  2
      angular_grids specified
        division   0.7542  110
        division   1.0056  194
        division   1.2887  302
        division   1.4138  434
  #      division   1.5042  590
  #      division   1.6519  770
  #      outer_grid  974
        outer_grid  434
  ################################################################################
  #
  #  Definition of "minimal" basis
  #
  ################################################################################
  #     valence basis states
      valence      6  s   1.
      valence      5  p   6.
      valence      4  d  10.
  #     ion occupancy
      ion_occ      6  s   0.
      ion_occ      5  p   6.
      ion_occ      4  d  10.
  ################################################################################
  #
  #  Suggested additional basis functions. For production calculations,
  #  uncomment them one after another (the most important basis functions are
  #  listed first).
  #
  #  Constructed for dimers: 2.70, 3.50, 4.50, 5.50 Ang
  #
  ################################################################################
  #  "First tier" - improvements: -138.41 meV to -7.10 meV
       hydro 3 d 3.9
       hydro 4 f 6.4
       hydro 3 p 2.3
       hydro 4 s 2.7
  #  "Second tier" - improvements: -6.08 meV to -0.77 meV
       hydro 4 d 3.9
  #     hydro 4 f 20.8
  #     hydro 5 g 8.6
  #     hydro 5 f 41.6
  #     hydro 6 h 11.6
  #     hydro 4 p 7.0
  #     hydro 4 s 3.8
  #  "Third tier" - max. impr. -0.54 meV, min. impr. -0.09 meV
  #     hydro 5 d 10
  #     hydro 5 f 17.6
  #     hydro 4 p 3.5
  #     hydro 5 f 7.4
  #     hydro 1 s 2.3
  #     hydro 5 g 11.6
  #  One more function - impr. -0.05 meV
  #     hydro 6 d 17.2
  ################################################################################
  #
  #  FHI-aims code project
  #  Volker Blum, 2018
  #
  #  Suggested "intermediate" defaults for Br atom (to be pasted into control.in file)
  #
  #  2020/09/15 These "intermediate" settings are identical to past "tight" defaults
  #             and differ only in the "g" function that is now included in "tight".
  #
  ################################################################################
    species        Br
  #     global species definitions
      nucleus             35
      mass                79.904
  #
      l_hartree           6
  #
      cut_pot             4.0          2.0  1.0
      basis_dep_cutoff    1e-4
  #
      radial_base         56 7.0
      radial_multiplier   2
      angular_grids       specified
        division   0.0871  110
        division   0.1400  194
        division   0.7896  302
        division   0.8837  434
  #      division   0.9869  590
  #      division   1.0613  770
  #      division   2.6835  974
  #      outer_grid  974
        outer_grid  434
  ################################################################################
  #
  #  Definition of "minimal" basis
  #
  ################################################################################
  #     valence basis states
      valence      4  s   2.
      valence      4  p   5.
      valence      3  d  10.
  #     ion occupancy
      ion_occ      4  s   1.
      ion_occ      4  p   4.
      ion_occ      3  d  10.
  ################################################################################
  #
  #  Suggested additional basis functions. For production calculations,
  #  uncomment them one after another (the most important basis functions are
  #  listed first).
  #
  #  Constructed for dimers: 1.90 A, 2.25 A, 2.75 A, 3.25 A, 4.00 A
  #
  ################################################################################
  #  "First tier" - improvements: -247.24 meV to -20.97 meV
       hydro 3 d 4.6
       hydro 2 p 1.7
       hydro 4 f 7.6
       ionic 4 s auto
  #  "Second tier" - improvements: -9.01 meV to -0.73 meV
  #     hydro 5 g 10.4
  #     hydro 3 d 4.1
  #     hydro 6 h 14.8
  #     hydro 4 p 4.7
  #     hydro 1 s 0.7
  #     hydro 4 f 12.4
  #  "Third tier" - improvements: -0.26 meV and below
  #     hydro 5 f 14.8
  #     hydro 5 d 7.8
  #     hydro 5 g 14.4
  #     ionic 4 p auto
  #     hydro 3 s 3.2
  #  "Fourth tier" - improvements: -0.09 meV and below
  #     hydro 5 f 25.6
  #     hydro 5 d 11.2
  #     hydro 3 p 3.9
  #     hydro 6 h 16.8
  #     hydro 5 g 13.2
  #     hydro 5 s 5.4
  ################################################################################
  #
  #  FHI-aims code project
  #  Volker Blum, 2018
  #
  #  Suggested "intermediate" defaults for I atom (to be pasted into control.in file)
  #
  #  2020/09/15 These "intermediate" settings are identical to past "tight" defaults
  #             and differ only in the "g" function that is now included in "tight".
  #
  ################################################################################
    species          I
  #     global species definitions
      nucleus        53
      mass           126.90447
  #
      l_hartree      6
  #
      cut_pot        4.0  2.0  1.0
      basis_dep_cutoff    1e-4
  #
      radial_base    64  7.0
      radial_multiplier  2
      angular_grids specified
        division   0.1103  110
        division   0.1515  194
        division   0.9554  302
  #      division   1.1196  590
  #      division   1.1922  770
  #      division   6.1948  974
  #      outer_grid  974
        outer_grid  434
  ################################################################################
  #
  #  Definition of "minimal" basis
  #
  ################################################################################
  #     valence basis states
      valence      5  s   2.
      valence      5  p   5.
      valence      4  d  10.
  #     ion occupancy
      ion_occ      5  s   1.
      ion_occ      5  p   4.
      ion_occ      4  d  10.
  ################################################################################
  #
  #  Suggested additional basis functions. For production calculations,
  #  uncomment them one after another (the most important basis functions are
  #  listed first).
  #
  #  Constructed for dimers: 2.22, 2.65, 3.25, 4.25 Ang
  #
  ################################################################################
  #  "First tier" - improvements: -270.74 meV to -21.24 meV
       hydro 3 d 4
       hydro 4 f 6.4
       hydro 2 p 1.6
       ionic 5 s auto
  #  "Second tier" - improvements: -16.39 meV to -0.39 meV
  #     hydro 5 g 9.4
  #     hydro 4 f 18.4
  #     hydro 6 h 12.4
  #     hydro 4 p 4.5
  #     hydro 3 d 4.2
  #     hydro 3 s 3.0
  #  "Third tier" - max. impr. -0.76 meV, min. impr. -0.06 meV
  #     hydro 5 f 15.6
  #     hydro 5 g 12
  #     hydro 5 d 16
  #     hydro 4 f 42
  #     hydro 6 h 15.2
  #     ionic 5 p auto
  #     hydro 1 s 6.2
  #  Further functions that fell out of the optimization: -0.10 meV and below
  #     hydro 4 f 7
  #     hydro 6 p 9
  #     hydro 2 s 6.4
  
  -----------------------------------------------------------------------
  Completed first pass over input file control.in .
  -----------------------------------------------------------------------
  
  
  -----------------------------------------------------------------------
  Parsing geometry.in (first pass over file, find array dimensions only).
  The contents of geometry.in will be repeated verbatim below
  unless switched off by setting 'verbatim_writeout .false.' .
  in the first line of geometry.in .
  -----------------------------------------------------------------------
  
  #
  # This is the geometry file that corresponds to the current relaxation step.
  # If you do not want this file to be written, set the "write_restart_geometry" flag to .false.
  #  aims_uuid : 4C06065F-7F80-44D0-AEDB-1CC26A0AB03F
  #
  lattice_vector     12.63260688     -0.00000000     -0.00000001
  lattice_vector     -0.00000000     12.63261893      0.00000000
  lattice_vector     -0.00000001      0.00000000     12.63261994
  atom_frac      -0.00000086     -0.00000064     -0.00000056 Cs
  atom_frac      -0.00000082      0.00000057      0.49999725 Cs
  atom_frac      -0.00000139      0.49999721      0.00000060 Cs
  atom_frac      -0.00000154      0.49999939      0.50000159 Cs
  atom_frac       0.49999744     -0.00000077     -0.00000051 Cs
  atom_frac       0.49999690      0.00000032      0.49999639 Cs
  atom_frac       0.49999666      0.49999693      0.00000042 Cs
  atom_frac       0.49999500      0.49999950      0.49999903 Cs
  atom_frac       0.25000203      0.24999387      0.24999593 Pb
  atom_frac       0.24999488      0.25000754      0.74999062 Pb
  atom_frac       0.25000134      0.74999032      0.25000871 Pb
  atom_frac       0.24999481      0.75000510      0.75000711 Pb
  atom_frac       0.75000321      0.24999324      0.24999316 Pb
  atom_frac       0.74999738      0.25001021      0.74998807 Pb
  atom_frac       0.75000571      0.74998826      0.25000737 Pb
  atom_frac       0.74999534      0.75000882      0.75000337 Pb
  atom_frac       0.25000038      0.24999956     -0.00000415 I
  atom_frac       0.25000144      0.25000058      0.50000001 I
  atom_frac       0.25000149      0.74999775      0.00000740 I
  atom_frac       0.25000206      0.74999851      0.50001213 I
  atom_frac       0.74999789      0.24999983     -0.00000660 I
  atom_frac       0.74999778      0.25000120      0.49999722 I
  atom_frac       0.74999833      0.74999809      0.00000385 I
  atom_frac       0.74999915      0.74999877      0.50000868 I
  atom_frac       0.25000172     -0.00000529      0.24999913 I
  atom_frac       0.25000157      0.00000824      0.75000056 I
  atom_frac       0.25000140      0.49999709      0.24999839 I
  atom_frac       0.25000080      0.50001132      0.75000007 I
  atom_frac       0.74999843     -0.00000768      0.24999974 I
  atom_frac       0.74999896      0.00001190      0.75000048 I
  atom_frac       0.74999884      0.49999452      0.24999839 I
  atom_frac       0.74999866      0.50001511      0.75000009 I
  atom_frac       0.00000439      0.24999898      0.24999916 I
  atom_frac      -0.00000120      0.25000006      0.74999997 I
  atom_frac       0.00000653      0.74999773      0.24999901 I
  atom_frac      -0.00000195      0.74999851      0.75000051 I
  atom_frac       0.50000721      0.24999921      0.24999857 I
  atom_frac       0.50000079      0.25000030      0.75000001 I
  atom_frac       0.50000909      0.74999725      0.24999870 I
  atom_frac       0.50000016      0.74999859      0.75000012 I
  #
  # What follows is the current estimated Hessian matrix constructed by the BFGS algorithm.
  # This is NOT the true Hessian matrix of the system.
  # If you do not want this information here, switch it off using the "hessian_to_restart_geometry" keyword.
  #
  trust_radius             0.2000000030
  hessian_file
  
  -----------------------------------------------------------------------
  Completed first pass over input file geometry.in .
  -----------------------------------------------------------------------
  

  Basic array size parameters:
  | Number of species                 :        4
  | Number of atoms                   :       40
  | Number of lattice vectors         :        3
  | Max. basis fn. angular momentum   :        4
  | Max. atomic/ionic basis occupied n:        6
  | Max. number of basis fn. types    :        3
  | Max. radial fns per species/type  :       15
  | Max. logarithmic grid size        :     1491
  | Max. radial integration grid size :      149
  | Max. angular integration grid size:      434
  | Max. angular grid division number :        8
  | Radial grid for Hartree potential :     1491
  | Number of spin channels           :        1

------------------------------------------------------------
          Reading file control.in.
------------------------------------------------------------
  XC: Using PBE gradient-corrected functionals.
  Spin treatment: No spin polarisation.
  Scalar relativistic treatment of kinetic energy: on-site free-atom approximation to ZORA.
  Found k-point grid:         2         2         2
  Occupation type: Gaussian broadening, width =   0.100000E-01 eV.
  Using pulay charge density mixing.
  Pulay mixing - number of memorized iterations:    8
  Charge density mixing - mixing parameter:     0.2000
  Convergence accuracy of sum of eigenvalues:  0.1000E-02
  | Force self-consistency will not be checked explicitly.
  Maximum number of s.-c. iterations  :  4000
  Geometry relaxation: Modified BFGS - TRM (trust radius method) for lattice optimization.
  Convergence accuracy for geometry relaxation: Maximum force <   0.100000E-02 eV/A.

  Reading configuration options for species Pb                  .
  | Found nuclear charge :  82.0000
  | Found atomic mass :    207.19999999999999      amu
  | Found l_max for Hartree potential  :   6
  | Found cutoff potl. onset [A], width [A], scale factor :    4.00000    2.00000    1.00000
  | Threshold for basis-dependent cutoff potential is   0.100000E-03
  | Found data for basic radial integration grid :    74 points, outermost radius =    7.000 A
  | Found multiplier for basic radial grid :   2
  | Found angular grid specification: user-specified.
  | Specified grid contains     5 separate shells.
  | Check grid settings after all constraints further below.
  | Found free-atom valence shell :  6 s   2.000
  | Found free-atom valence shell :  6 p   2.000
  | Found free-atom valence shell :  5 d  10.000
  | Found free-atom valence shell :  4 f  14.000
  | Found free-ion valence shell :  6 s   1.000
  | Found free-ion valence shell :  6 p   1.000
  | Found free-ion valence shell :  5 d  10.000
  | Found free-ion valence shell :  4 f  14.000
  | Found hydrogenic basis function :  3 p   2.300
  | Found hydrogenic basis function :  4 f   7.600
  | Found hydrogenic basis function :  3 d   3.500
  | Found hydrogenic extended basis function :  5 g   9.800
  | Found hydrogenic basis function :  3 s   3.200
  Species Pb                  : Missing cutoff potential type.
  Defaulting to exp(1/x)/(1-x)^2 type cutoff potential.
  Species Pb: No 'logarithmic' tag. Using default grid for free atom:
  | Default logarithmic grid data [bohr] : 0.1000E-03 0.1000E+03 0.1012E+01
  Species Pb: On-site basis accuracy parameter (for Gram-Schmidt orthonormalisation) not specified.
  Using default value basis_acc =  0.1000000E-03.
  Species Pb                  : Using default innermost maximum threshold i_radial=  2 for radial functions.
  Species Pb                  : Default cutoff onset for free atom density etc. : 0.40000000E+01 AA.
  Species Pb                  : Basic radial grid will be enhanced according to radial_multiplier =   2, to contain   149 grid points.

  Reading configuration options for species Cs                  .
  | Found nuclear charge :  55.0000
  | Found atomic mass :    132.90545190000000      amu
  | Found l_max for Hartree potential  :   6
  | Found cutoff potl. onset [A], width [A], scale factor :    5.50000    2.00000    1.00000
  | Threshold for basis-dependent cutoff potential is   0.100000E-03
  | Found data for basic radial integration grid :    65 points, outermost radius =    7.000 A
  | Found multiplier for basic radial grid :   2
  | Found angular grid specification: user-specified.
  | Specified grid contains     5 separate shells.
  | Check grid settings after all constraints further below.
  | Found free-atom valence shell :  6 s   1.000
  | Found free-atom valence shell :  5 p   6.000
  | Found free-atom valence shell :  4 d  10.000
  | Found free-ion valence shell :  6 s   0.000
  | Found free-ion valence shell :  5 p   6.000
  | Found free-ion valence shell :  4 d  10.000
  | Found hydrogenic basis function :  3 d   3.900
  | Found hydrogenic basis function :  4 f   6.400
  | Found hydrogenic basis function :  3 p   2.300
  | Found hydrogenic basis function :  4 s   2.700
  | Found hydrogenic basis function :  4 d   3.900
  Species Cs                  : Missing cutoff potential type.
  Defaulting to exp(1/x)/(1-x)^2 type cutoff potential.
  Species Cs: No 'logarithmic' tag. Using default grid for free atom:
  | Default logarithmic grid data [bohr] : 0.1000E-03 0.1000E+03 0.1012E+01
  Species Cs: On-site basis accuracy parameter (for Gram-Schmidt orthonormalisation) not specified.
  Using default value basis_acc =  0.1000000E-03.
  Species Cs                  : Using default innermost maximum threshold i_radial=  2 for radial functions.
  Species Cs                  : Default cutoff onset for free atom density etc. : 0.55000000E+01 AA.
  Species Cs                  : Basic radial grid will be enhanced according to radial_multiplier =   2, to contain   131 grid points.

  Reading configuration options for species Br                  .
  | Found nuclear charge :  35.0000
  | Found atomic mass :    79.903999999999996      amu
  | Found l_max for Hartree potential  :   6
  | Found cutoff potl. onset [A], width [A], scale factor :    4.00000    2.00000    1.00000
  | Threshold for basis-dependent cutoff potential is   0.100000E-03
  | Found data for basic radial integration grid :    56 points, outermost radius =    7.000 A
  | Found multiplier for basic radial grid :   2
  | Found angular grid specification: user-specified.
  | Specified grid contains     5 separate shells.
  | Check grid settings after all constraints further below.
  | Found free-atom valence shell :  4 s   2.000
  | Found free-atom valence shell :  4 p   5.000
  | Found free-atom valence shell :  3 d  10.000
  | Found free-ion valence shell :  4 s   1.000
  | Found free-ion valence shell :  4 p   4.000
  | Found free-ion valence shell :  3 d  10.000
  | Found hydrogenic basis function :  3 d   4.600
  | Found hydrogenic basis function :  2 p   1.700
  | Found hydrogenic basis function :  4 f   7.600
  | Found ionic basis function :  4 s , default cutoff radius.
  Species Br                  : Missing cutoff potential type.
  Defaulting to exp(1/x)/(1-x)^2 type cutoff potential.
  Species Br: No 'logarithmic' tag. Using default grid for free atom:
  | Default logarithmic grid data [bohr] : 0.1000E-03 0.1000E+03 0.1012E+01
  | Will include ionic basis functions of  2.0-fold positive Br                   ion.
  Species Br: On-site basis accuracy parameter (for Gram-Schmidt orthonormalisation) not specified.
  Using default value basis_acc =  0.1000000E-03.
  Species Br                  : Using default innermost maximum threshold i_radial=  2 for radial functions.
  Species Br                  : Default cutoff onset for free atom density etc. : 0.40000000E+01 AA.
  Species Br                  : Basic radial grid will be enhanced according to radial_multiplier =   2, to contain   113 grid points.

  Reading configuration options for species I                   .
  | Found nuclear charge :  53.0000
  | Found atomic mass :    126.90447000000000      amu
  | Found l_max for Hartree potential  :   6
  | Found cutoff potl. onset [A], width [A], scale factor :    4.00000    2.00000    1.00000
  | Threshold for basis-dependent cutoff potential is   0.100000E-03
  | Found data for basic radial integration grid :    64 points, outermost radius =    7.000 A
  | Found multiplier for basic radial grid :   2
  | Found angular grid specification: user-specified.
  | Specified grid contains     4 separate shells.
  | Check grid settings after all constraints further below.
  | Found free-atom valence shell :  5 s   2.000
  | Found free-atom valence shell :  5 p   5.000
  | Found free-atom valence shell :  4 d  10.000
  | Found free-ion valence shell :  5 s   1.000
  | Found free-ion valence shell :  5 p   4.000
  | Found free-ion valence shell :  4 d  10.000
  | Found hydrogenic basis function :  3 d   4.000
  | Found hydrogenic basis function :  4 f   6.400
  | Found hydrogenic basis function :  2 p   1.600
  | Found ionic basis function :  5 s , default cutoff radius.
  Species I                   : Missing cutoff potential type.
  Defaulting to exp(1/x)/(1-x)^2 type cutoff potential.
  Species I : No 'logarithmic' tag. Using default grid for free atom:
  | Default logarithmic grid data [bohr] : 0.1000E-03 0.1000E+03 0.1012E+01
  | Will include ionic basis functions of  2.0-fold positive I                    ion.
  Species I : On-site basis accuracy parameter (for Gram-Schmidt orthonormalisation) not specified.
  Using default value basis_acc =  0.1000000E-03.
  Species I                   : Using default innermost maximum threshold i_radial=  2 for radial functions.
  Species I                   : Default cutoff onset for free atom density etc. : 0.40000000E+01 AA.
  Species I                   : Basic radial grid will be enhanced according to radial_multiplier =   2, to contain   129 grid points.

  Finished reading input file 'control.in'.

------------------------------------------------------------


------------------------------------------------------------
          Reading geometry description geometry.in.
------------------------------------------------------------
 * Large trust radius value found - resetting to the current value of max_atomic_move,      0.20000000 A.
  Found keyword 'hessian_file', indicating that this is the continuation of a structure optimization.
  Verifying the existence of the file 'hessian.aims' on all processors
  | The smallest distance between any two atoms is         3.15803637 AA.
  | The first atom of this pair is atom number                     10 .
  | The second atom of this pair is atom number                    18 .
  | Wigner-Seitz cell of the first atom image           0     0     0 .
  | (The Wigner-Seitz cell of the second atom is 0 0 0  by definition.)

  Symmetry information by spglib:
  | Precision set to  0.1E-04
  | Number of Operations  : 1
  | Space group           : 1
  | International         : P1 ^    P q
  | Schoenflies           : C1^1
  Input structure read successfully.
  The structure contains       40 atoms,  and a total of       2368.000 electrons.

  Input geometry:
  | Unit cell:
  |       12.63260688       -0.00000000       -0.00000001
  |       -0.00000000       12.63261893        0.00000000
  |       -0.00000001        0.00000000       12.63261994
  | Atomic structure:
  |       Atom                x [A]            y [A]            z [A]
  |    1: Species Cs           -0.00001086       -0.00000808       -0.00000707
  |    2: Species Cs           -0.00001036        0.00000720        6.31627523
  |    3: Species Cs           -0.00001756        6.31627422        0.00000758
  |    4: Species Cs           -0.00001946        6.31630176        6.31633006
  |    5: Species Cs            6.31627110       -0.00000973       -0.00000645
  |    6: Species Cs            6.31626427        0.00000404        6.31626436
  |    7: Species Cs            6.31626125        6.31627068        0.00000530
  |    8: Species Cs            6.31624027        6.31630315        6.31629771
  |    9: Species Pb            3.15817736        3.15807729        3.15810357
  |   10: Species Pb            3.15808703        3.15824998        9.47434646
  |   11: Species Pb            3.15816865        9.47434191        3.15826501
  |   12: Species Pb            3.15808615        9.47452862        9.47455477
  |   13: Species Pb            9.47449571        3.15806934        3.15806857
  |   14: Species Pb            9.47442206        3.15828371        9.47431424
  |   15: Species Pb            9.47452729        9.47431589        3.15824808
  |   16: Species Pb            9.47439628        9.47457562        9.47450752
  |   17: Species I             3.15815652        3.15814917       -0.00005243
  |   18: Species I             3.15816991        3.15816206        6.31631009
  |   19: Species I             3.15817054        9.47443577        0.00009348
  |   20: Species I             3.15817774        9.47444537        6.31646320
  |   21: Species I             9.47442851        3.15815258       -0.00008338
  |   22: Species I             9.47442711        3.15816989        6.31627484
  |   23: Species I             9.47443406        9.47444007        0.00004863
  |   24: Species I             9.47444442        9.47444866        6.31641961
  |   25: Species I             3.15817345       -0.00006683        3.15814399
  |   26: Species I             3.15817155        0.00010409        9.47447203
  |   27: Species I             3.15816940        6.31627270        3.15813464
  |   28: Species I             3.15816182        6.31645247        9.47446584
  |   29: Species I             9.47443532       -0.00009702        3.15815169
  |   30: Species I             9.47444201        0.00015033        9.47447101
  |   31: Species I             9.47444050        6.31624024        3.15813464
  |   32: Species I             9.47443822        6.31650034        9.47446608
  |   33: Species I             0.00005545        3.15814185        3.15814437
  |   34: Species I            -0.00001517        3.15815549        9.47446458
  |   35: Species I             0.00008249        9.47443552        3.15814248
  |   36: Species I            -0.00002464        9.47444537        9.47447140
  |   37: Species I             6.31639452        3.15814475        3.15813692
  |   38: Species I             6.31631341        3.15815852        9.47446508
  |   39: Species I             6.31641827        9.47442946        3.15813856
  |   40: Species I             6.31630545        9.47444639        9.47446647

  Lattice parameters for 3D lattice (in Angstroms) :    12.632607   12.632619   12.632620
  Angle(s) between unit vectors (in degrees)       :    90.000000   90.000000   90.000000


  Quantities derived from the lattice vectors (in Angstrom^-1):
  | Reciprocal lattice vector 1:  0.497378  0.000000  0.000000
  | Reciprocal lattice vector 2:  0.000000  0.497378  0.000000
  | Reciprocal lattice vector 3:  0.000000  0.000000  0.497378
  | Unit cell volume                               :   0.201595E+04  Angstrom^3

  Fractional coordinates:
                         L1                L2                L3
       atom_frac        -0.00000086       -0.00000064       -0.00000056  Cs
       atom_frac        -0.00000082        0.00000057        0.49999725  Cs
       atom_frac        -0.00000139        0.49999721        0.00000060  Cs
       atom_frac        -0.00000154        0.49999939        0.50000159  Cs
       atom_frac         0.49999744       -0.00000077       -0.00000051  Cs
       atom_frac         0.49999690        0.00000032        0.49999639  Cs
       atom_frac         0.49999666        0.49999693        0.00000042  Cs
       atom_frac         0.49999500        0.49999950        0.49999903  Cs
       atom_frac         0.25000203        0.24999387        0.24999593  Pb
       atom_frac         0.24999488        0.25000754        0.74999062  Pb
       atom_frac         0.25000134        0.74999032        0.25000871  Pb
       atom_frac         0.24999481        0.75000510        0.75000711  Pb
       atom_frac         0.75000321        0.24999324        0.24999316  Pb
       atom_frac         0.74999738        0.25001021        0.74998807  Pb
       atom_frac         0.75000571        0.74998826        0.25000737  Pb
       atom_frac         0.74999534        0.75000882        0.75000337  Pb
       atom_frac         0.25000038        0.24999956       -0.00000415  I
       atom_frac         0.25000144        0.25000058        0.50000001  I
       atom_frac         0.25000149        0.74999775        0.00000740  I
       atom_frac         0.25000206        0.74999851        0.50001213  I
       atom_frac         0.74999789        0.24999983       -0.00000660  I
       atom_frac         0.74999778        0.25000120        0.49999722  I
       atom_frac         0.74999833        0.74999809        0.00000385  I
       atom_frac         0.74999915        0.74999877        0.50000868  I
       atom_frac         0.25000172       -0.00000529        0.24999913  I
       atom_frac         0.25000157        0.00000824        0.75000056  I
       atom_frac         0.25000140        0.49999709        0.24999839  I
       atom_frac         0.25000080        0.50001132        0.75000007  I
       atom_frac         0.74999843       -0.00000768        0.24999974  I
       atom_frac         0.74999896        0.00001190        0.75000048  I
       atom_frac         0.74999884        0.49999452        0.24999839  I
       atom_frac         0.74999866        0.50001511        0.75000009  I
       atom_frac         0.00000439        0.24999898        0.24999916  I
       atom_frac        -0.00000120        0.25000006        0.74999997  I
       atom_frac         0.00000653        0.74999773        0.24999901  I
       atom_frac        -0.00000195        0.74999851        0.75000051  I
       atom_frac         0.50000721        0.24999921        0.24999857  I
       atom_frac         0.50000079        0.25000030        0.75000001  I
       atom_frac         0.50000909        0.74999725        0.24999870  I
       atom_frac         0.50000016        0.74999859        0.75000012  I


  Finished reading input file 'geometry.in'.



  Consistency checks for stacksize environment parameter are next.

  | Maximum stacksize for task 0: unlimited
  | Current stacksize for task 0: unlimited

  Consistency checks for the contents of control.in are next.

  MPI_IN_PLACE appears to work with this MPI implementation.
  | Keeping use_mpi_in_place .true. (see manual).
  Target number of points in a grid batch is not set. Defaulting to  100
  Method for grid partitioning is not set. Defaulting to parallel hash+maxmin partitioning.
  Batch size limit is not set. Defaulting to    200
  By default, will store active basis functions for each batch.
  If in need of memory, prune_basis_once .false. can be used to disable this option.
  communication_type for Hartree potential was not specified.
  Defaulting to calc_hartree .
  Pulay mixer: Number of initial linear mixing iterations not set.
  Defaulting to    0 iterations.
  Work space size for distributed Hartree potential not set.
  Defaulting to   0.200000E+03 MB.
  Algorithm-dependent basis array size parameters:
  | n_max_pulay                         :        8
  Presetting      1001 iterations before the initial mixing cycle
  is restarted anyway using the sc_init_iter criterion / keyword.
  Presetting a factor      1.000 between actual scf density residual
  and density convergence criterion sc_accuracy_rho below which sc_init_iter
  takes no effect.
  No maximum number of relaxation steps, defaulting to     1000
  Using explicit Hessian from geometry.in.
  No maximum energy tolerance for TRM/BFGS moves, defaulting to   0.150000E-02
  Maximum energy tolerance by which TRM/BFGS trajectory may increase over multiple steps:   0.300000E-02
  No harmonic length scale. Defaulting to   0.250000E-01 A.
  No trust radius initializer. Defaulting to   0.200000E+00 A.
  Unit cell relaxation: Unit cell will be relaxed fully.
  Unit cell relaxation: Analytical stress will be used.
  Analytical stress will be computed.
  Analytical stress calculation: Only the upper triangle is calculated.
                                 Final output is symmetrized.
  Analytical stress calculation: scf convergence accuracy of stress not set.
                                 Analytical stress self-consistency will not be checked explicitly.
                                 Be sure to set other criteria like sc_accuracy_rho tight enough.
  Forces evaluation will include force correction term due to incomplete self-consistency (default).
 * Notice: The s.c.f. convergence criterion sc_accuracy_rho was not provided.
 * We used to stop in this case, and ask the user to provide reasonable
 * scf convergence criteria. However, this led some users to employ criteria
 * that led to extremely long run times, e.g., for simple relaxation.
 * We now preset a default value for sc_accuracy_rho if it is not set.
 * You may still wish to check if this setting is too tight or too loose for your needs.
 * Based on n_atoms and forces and force-correction status, FHI-aims chose sc_accuracy_rho =  0.258199E-05 .
  Handling of forces: Unphysical translation and rotation will be removed from forces.
  No accuracy limit for integral partition fn. given. Defaulting to  0.1000E-14.
  No threshold value for u(r) in integrations given. Defaulting to  0.1000E-05.
  No accuracy for occupation numbers given. Defaulting to  0.1000E-12.
  No threshold value for occupation numbers given. Defaulting to  0.0000E+00.
  No accuracy for fermi level given. Defaulting to  0.1000E-19.
  Maximum # of iterations to find E_F not set. Defaulting to  200.
  Preferred method for the eigenvalue solver ('KS_method') not specified in 'control.in'.
  Defaulting to serial version LAPACK (via ELSI).
  Will not use alltoall communication since running on < 1024 CPUs.
  Threshold for basis singularities not set.
  Default threshold for basis singularities:  0.1000E-04
  partition_type (choice of integration weights) for integrals was not specified.
  | Using a version of the partition function of Stratmann and coworkers ('stratmann_sparse').
  | At each grid point, the set of atoms used to build the partition table is smoothly restricted to
  | only those atoms whose free-atom density would be non-zero at that grid point.
  Partitioning for Hartree potential was not defined. Using partition_type for integrals.
  | Adjusted default value of keyword multip_moments_threshold to:       0.10000000E-11
  | This value may affect high angular momentum components of the Hartree potential in periodic systems.
  Angular momentum expansion for Kerker preconditioner not set explicitly.
  | Using default value of   0
  No explicit requirement for turning off preconditioner.
  | By default, it will be turned off when the charge convergence reaches
  | sc_accuracy_rho  =   0.258199E-05
  | sc_accuracy_eev  =   0.100000E-02
  No special mixing parameter while Kerker preconditioner is on.
  Using default: charge_mix_param =     0.2000.
  No q(lm)/r^(l+1) cutoff set for long-range Hartree potential.
  | Using default value of  0.100000E-09 .
  | Verify using the multipole_threshold keyword.
  Defaulting to new monopole extrapolation.
  Density update method: automatic selection selected.
  Using density matrix based charge density update.
  Using density matrix based charge density update.
  Using packed matrix style: index .
  Geometry relaxation: A file "geometry.in.next_step" is written out by default after each step.
  | This file contains the geometry of the current relaxation step as well as
  | the current Hessian matrix needed to restart the relaxation algorithm.
  | If you do not want part or all of this information, use the keywords
  | "write_restart_geometry" or "hessian_to_restart_geometry" to switch the output off.
  Defaulting to use time-reversal symmetry for k-point grid.
  Charge integration errors on the 3D integration grid will be compensated
  by explicit normalization and distribution of residual charges.
  Use the "compensate_multipole_errors" flag to change this behaviour.
  Using the following vdw_convergence_threshold for supercell sums
  over the Tkatchenko-Scheffler correction:  0.100000E-05 eV.
  Set 'collect_eigenvectors' to be '.true.' for all serial calculations. This is mandatory.
  Set 'collect_eigenvectors' to be '.true.' for KS_method lapack_fast and serial.

  Consistency checks for the contents of geometry.in are next.


  Range separation radius for Ewald summation (hartree_convergence_parameter):      5.00000000 bohr.
  Number of empty states per atom not set in control.in - providing a guess from actual geometry.
  | Total number of empty states used during s.c.f. cycle:      248
  If you use a very high smearing, use empty_states (per atom!) in control.in to increase this value.

  Structure-dependent array size parameters: 
  | Maximum number of distinct radial functions  :       64
  | Maximum number of basis functions            :     1968
  | Number of Kohn-Sham states (occupied + empty):     1432
------------------------------------------------------------

------------------------------------------------------------
          Preparing all fixed parts of the calculation.
------------------------------------------------------------
  Determining machine precision:
     2.2250738585072014E-308
  Setting up grids for atomic and cluster calculations.

  Creating wave function, potential, and density for free atoms.
  Runtime choices for atomic solver:
  | atomic solver xc        : PBE
  | compute density gradient: 1
  | compute kinetic density : F

  Species: Pb

  List of occupied orbitals and eigenvalues:
    n    l              occ      energy [Ha]    energy [eV]
    1    0           2.0000     -3583.277747    -97505.9486
    2    0           2.0000      -591.290564    -16089.8349
    3    0           2.0000      -139.817779     -3804.6353
    4    0           2.0000       -31.500228      -857.1648
    5    0           2.0000        -5.285996      -143.8393
    6    0           2.0000        -0.435949       -11.8628
    2    1           6.0000      -505.946867    -13767.5147
    3    1           6.0000      -115.940668     -3154.9061
    4    1           6.0000       -23.734264      -645.8422
    5    1           6.0000        -3.143583       -85.5412
    6    1           2.0000        -0.122377        -3.3300
    3    2          10.0000       -91.725457     -2495.9767
    4    2          10.0000       -14.775440      -402.0602
    5    2          10.0000        -0.771604       -20.9964
    4    3          14.0000        -4.888066      -133.0110


  Species: Cs

  List of occupied orbitals and eigenvalues:
    n    l              occ      energy [Ha]    energy [eV]
    1    0           2.0000     -1370.517962    -37293.6912
    2    0           2.0000      -207.940437     -5658.3472
    3    0           2.0000       -42.963368     -1169.0927
    4    0           2.0000        -8.088324      -220.0945
    5    0           2.0000        -0.975113       -26.5342
    6    0           1.0000        -0.070511        -1.9187
    2    1           6.0000      -186.423076     -5072.8300
    3    1           6.0000       -36.102172      -982.3901
    4    1           6.0000        -5.901007      -160.5746
    5    1           6.0000        -0.489794       -13.3280
    3    2          10.0000       -26.056965      -709.0461
    4    2          10.0000        -2.722006       -74.0695


  Species: Br

  List of occupied orbitals and eigenvalues:
    n    l              occ      energy [Ha]    energy [eV]
    1    0           2.0000      -497.115120    -13527.1907
    2    0           2.0000       -63.852263     -1737.5085
    3    0           2.0000        -8.750857      -238.1229
    4    0           2.0000        -0.739442       -20.1212
    2    1           6.0000       -56.304457     -1532.1222
    3    1           6.0000        -6.375550      -173.4875
    4    1           5.0000        -0.288435        -7.8487
    3    2          10.0000        -2.452229       -66.7286


  Species: I

  List of occupied orbitals and eigenvalues:
    n    l              occ      energy [Ha]    energy [eV]
    1    0           2.0000     -1258.773426    -34252.9677
    2    0           2.0000      -188.593391     -5131.8873
    3    0           2.0000       -37.851314     -1029.9867
    4    0           2.0000        -6.635220      -180.5535
    5    0           2.0000        -0.638654       -17.3787
    2    1           6.0000      -169.180733     -4603.6420
    3    1           6.0000       -31.613243      -860.2401
    4    1           6.0000        -4.685544      -127.5002
    5    1           5.0000        -0.259505        -7.0615
    3    2          10.0000       -22.293102      -606.6262
    4    2          10.0000        -1.847107       -50.2623


  Adding cutoff potential to free-atom effective potential.
  Creating fixed part of basis set: Ionic, confined, hydrogenic.

  Pb                   hydrogenic:

  List of hydrogenic basis orbitals: 
    n    l      effective z      eigenvalue [eV]  inner max. [A]     outer max. [A]     outer radius [A]   
    3    1         2.300000        -7.5446           0.685138           2.629026           5.474563
[...]
  |    7          0.392148376770092E-04          0.106413409376924E-05         -0.214143111768566E-04
  |    8          0.324403862803814E-04          0.238118591552786E-04          0.261145151550128E-04
  |    9          0.268991972323456E-03         -0.759224389085908E-04          0.371674770457829E-06
  |   10          0.326202502707772E-03         -0.605104291600460E-04          0.217873816118601E-03
  |   11          0.438273334355453E-03          0.225417765362098E-03          0.924649679041210E-04
  |   12          0.306220920935857E-03          0.227943947099273E-03         -0.355202387831131E-04
  |   13         -0.180210732109316E-03         -0.177814407790126E-03          0.140798363161363E-04
  |   14         -0.300689999116255E-03          0.275173108340542E-04          0.213353160833110E-03
  |   15         -0.271217327241684E-03          0.248368383158390E-03          0.146021340784431E-04
  |   16         -0.157417858571095E-03          0.691904872821001E-04          0.614535588113405E-04
  |   17          0.177466806395548E-04          0.253564292662841E-04          0.119218730165742E-03
  |   18          0.200530060056686E-04          0.214319840857467E-04         -0.258380597503376E-03
  |   19          0.243172472538262E-04          0.252015974023906E-04          0.470471332869198E-04
  |   20          0.195757832591077E-04          0.262252735919599E-04         -0.378452179312724E-03
  |   21          0.278474839209699E-04          0.241931321799911E-04          0.132813431818924E-03
  |   22          0.241109196465786E-04          0.229032997702895E-04         -0.195167548283111E-03
  |   23          0.325953423329975E-04          0.341445129212672E-04          0.109431445025649E-03
  |   24          0.265940648242871E-04          0.208657802890450E-04         -0.322831005661350E-03
  |   25          0.347085056304622E-04          0.803175147158166E-04          0.346817154992770E-04
  |   26          0.447474287877588E-05         -0.481334639926705E-04          0.307900352771582E-05
  |   27          0.342633642271034E-04         -0.140858387237922E-03          0.320814463975649E-04
  |   28          0.733623995402809E-05         -0.324212836851009E-03          0.307663303460599E-05
  |   29          0.403299208631374E-04          0.125012309571084E-03          0.228863981103648E-04
  |   30          0.135160218172070E-04         -0.966276731301427E-04         -0.899646740136174E-05
  |   31          0.448842284049433E-04         -0.819929833855433E-04          0.191583561046086E-04
  |   32          0.189163745339537E-04         -0.387521516739904E-03         -0.935055138305874E-05
  |   33          0.147051118742932E-05         -0.622325392207488E-05          0.110102970657000E-04
  |   34          0.302934775788559E-04          0.506144864316941E-04         -0.212149181951506E-04
  |   35         -0.504731875666037E-04         -0.326743322064558E-05          0.390756263901137E-04
  |   36          0.437189672954677E-04          0.602174321040967E-04          0.146122837306897E-04
  |   37         -0.276718839093950E-03         -0.453708779904675E-05          0.874586929396602E-05
  |   38         -0.171472362300838E-03          0.488556647544742E-04         -0.158579459107486E-04
  |   39         -0.294221452298030E-03         -0.407712373358611E-05          0.434399099620451E-04
  |   40         -0.176421416610871E-03          0.530639993172463E-04          0.180978391829508E-04

  ------------------------------------ 
  Start decomposition of the XC Energy 
  ------------------------------------ 
  X and C from original XC functional choice 
  Hartree-Fock Energy :          0.000000000 Ha              0.000000000 eV
  X Energy            :      -8936.435746611 Ha        -243172.789160574 eV
  C Energy            :       -132.893571900 Ha          -3616.218082547 eV
  XC Energy w/o HF    :      -9069.329318511 Ha        -246789.007243123 eV
  Total XC Energy     :      -9069.329318511 Ha        -246789.007243123 eV
  ------------------------------------ 
  LDA X and C from self-consistent density 
  X Energy LDA        :      -8547.440548828 Ha        -232587.691265050 eV
  C Energy LDA        :       -233.856942124 Ha          -6363.571170123 eV
  ------------------------------------ 
  End decomposition of the XC Energy 
  ------------------------------------ 

------------------------------------------------------------
  Relaxation / MD: End force evaluation.       :  max(cpu_time)    wall_clock(cpu1)
  | Time for this force evaluation              :    10263.311 s       10304.361 s

------------------------------------------------------------
  Geometry optimization: Attempting to predict improved coordinates.

  +-------------------------------------------------------------------+
  | Generalized derivatives on lattice vectors [eV/A]                 |
  +-------------------------------------------------------------------+
  |lattice_vector       0.00030531      -0.00000001       0.00000001  |
  |lattice_vector      -0.00000001       0.00029976       0.00000000  |
  |lattice_vector       0.00000001       0.00000000       0.00029915  |
  +-------------------------------------------------------------------+
  | Forces on lattice vectors cleaned from atomic contributions [eV/A]|
  +-------------------------------------------------------------------+
  |lattice_vector      -0.00030531       0.00000001      -0.00000001  |
  |lattice_vector       0.00000001      -0.00029976      -0.00000000  |
  |lattice_vector      -0.00000001      -0.00000000      -0.00029915  |
  +-------------------------------------------------------------------+
  Removing unitary transformations (pure translations, rotations) from forces on atoms.
  Atomic forces before filtering:
  | Net force on center of mass :   0.435562E-19 -0.130669E-18 -0.272226E-19 eV/A
  Atomic forces after filtering:
  | Net force on center of mass :   0.392006E-18 -0.435562E-19 -0.272226E-20 eV/A
  Net remaining forces (excluding translations, rotations) in present geometry:
  || Forces on atoms   || =   0.438273E-03 eV/A.
  || Forces on lattice || =   0.305311E-03 eV/A^3.
  Maximum force component is  0.438273E-03 eV/A.
  Present geometry is converged.

------------------------------------------------------------
  Final atomic structure:
                         x [A]             y [A]             z [A]
  lattice_vector        12.63260688       -0.00000000       -0.00000001
  lattice_vector        -0.00000000       12.63261893        0.00000000
  lattice_vector        -0.00000001        0.00000000       12.63261994

            atom        -0.00001086       -0.00000808       -0.00000707  Cs
            atom        -0.00001036        0.00000720        6.31627523  Cs
            atom        -0.00001756        6.31627422        0.00000758  Cs
            atom        -0.00001946        6.31630176        6.31633006  Cs
            atom         6.31627110       -0.00000973       -0.00000645  Cs
            atom         6.31626427        0.00000404        6.31626436  Cs
            atom         6.31626125        6.31627068        0.00000530  Cs
            atom         6.31624027        6.31630315        6.31629771  Cs
            atom         3.15817736        3.15807729        3.15810357  Pb
            atom         3.15808703        3.15824998        9.47434646  Pb
            atom         3.15816865        9.47434191        3.15826501  Pb
            atom         3.15808615        9.47452862        9.47455477  Pb
            atom         9.47449571        3.15806934        3.15806857  Pb
            atom         9.47442206        3.15828371        9.47431424  Pb
            atom         9.47452729        9.47431589        3.15824808  Pb
            atom         9.47439628        9.47457562        9.47450752  Pb
            atom         3.15815652        3.15814917       -0.00005243  I
            atom         3.15816991        3.15816206        6.31631009  I
            atom         3.15817054        9.47443577        0.00009348  I
            atom         3.15817774        9.47444537        6.31646320  I
            atom         9.47442851        3.15815258       -0.00008338  I
            atom         9.47442711        3.15816989        6.31627484  I
            atom         9.47443406        9.47444007        0.00004863  I
            atom         9.47444442        9.47444866        6.31641961  I
            atom         3.15817345       -0.00006683        3.15814399  I
            atom         3.15817155        0.00010409        9.47447203  I
            atom         3.15816940        6.31627270        3.15813464  I
            atom         3.15816182        6.31645247        9.47446584  I
            atom         9.47443532       -0.00009702        3.15815169  I
            atom         9.47444201        0.00015033        9.47447101  I
            atom         9.47444050        6.31624024        3.15813464  I
            atom         9.47443822        6.31650034        9.47446608  I
            atom         0.00005545        3.15814185        3.15814437  I
            atom        -0.00001517        3.15815549        9.47446458  I
            atom         0.00008249        9.47443552        3.15814248  I
            atom        -0.00002464        9.47444537        9.47447140  I
            atom         6.31639452        3.15814475        3.15813692  I
            atom         6.31631341        3.15815852        9.47446508  I
            atom         6.31641827        9.47442946        3.15813856  I
            atom         6.31630545        9.47444639        9.47446647  I

  Fractional coordinates:
                         L1                L2                L3
       atom_frac        -0.00000086       -0.00000064       -0.00000056  Cs
       atom_frac        -0.00000082        0.00000057        0.49999725  Cs
       atom_frac        -0.00000139        0.49999721        0.00000060  Cs
       atom_frac        -0.00000154        0.49999939        0.50000159  Cs
       atom_frac         0.49999744       -0.00000077       -0.00000051  Cs
       atom_frac         0.49999690        0.00000032        0.49999639  Cs
       atom_frac         0.49999666        0.49999693        0.00000042  Cs
       atom_frac         0.49999500        0.49999950        0.49999903  Cs
       atom_frac         0.25000203        0.24999387        0.24999593  Pb
       atom_frac         0.24999488        0.25000754        0.74999062  Pb
       atom_frac         0.25000134        0.74999032        0.25000871  Pb
       atom_frac         0.24999481        0.75000510        0.75000711  Pb
       atom_frac         0.75000321        0.24999324        0.24999316  Pb
       atom_frac         0.74999738        0.25001021        0.74998807  Pb
       atom_frac         0.75000571        0.74998826        0.25000737  Pb
       atom_frac         0.74999534        0.75000882        0.75000337  Pb
       atom_frac         0.25000038        0.24999956       -0.00000415  I
       atom_frac         0.25000144        0.25000058        0.50000001  I
       atom_frac         0.25000149        0.74999775        0.00000740  I
       atom_frac         0.25000206        0.74999851        0.50001213  I
       atom_frac         0.74999789        0.24999983       -0.00000660  I
       atom_frac         0.74999778        0.25000120        0.49999722  I
       atom_frac         0.74999833        0.74999809        0.00000385  I
       atom_frac         0.74999915        0.74999877        0.50000868  I
       atom_frac         0.25000172       -0.00000529        0.24999913  I
       atom_frac         0.25000157        0.00000824        0.75000056  I
       atom_frac         0.25000140        0.49999709        0.24999839  I
       atom_frac         0.25000080        0.50001132        0.75000007  I
       atom_frac         0.74999843       -0.00000768        0.24999974  I
       atom_frac         0.74999896        0.00001190        0.75000048  I
       atom_frac         0.74999884        0.49999452        0.24999839  I
       atom_frac         0.74999866        0.50001511        0.75000009  I
       atom_frac         0.00000439        0.24999898        0.24999916  I
       atom_frac        -0.00000120        0.25000006        0.74999997  I
       atom_frac         0.00000653        0.74999773        0.24999901  I
       atom_frac        -0.00000195        0.74999851        0.75000051  I
       atom_frac         0.50000721        0.24999921        0.24999857  I
       atom_frac         0.50000079        0.25000030        0.75000001  I
       atom_frac         0.50000909        0.74999725        0.24999870  I
       atom_frac         0.50000016        0.74999859        0.75000012  I
------------------------------------------------------------

------------------------------------------------------------------------------
  Final output of selected total energy values:

  The following output summarizes some interesting total energy values
  at the end of a run (AFTER all relaxation, molecular dynamics, etc.).

  | Total energy of the DFT / Hartree-Fock s.c.f. calculation      :      -11162489.210835559 eV
  | Final zero-broadening corrected energy (caution - metals only) :      -11162489.210835559 eV
  | For reference only, the value of 1 Hartree used in FHI-aims is :             27.211384500 eV
  | For reference only, the overall average (free atom contribution
  | + realspace contribution) of the electrostatic potential after
  | s.c.f. convergence is                                          :            -11.275119827 eV

  Before relying on these values, please be sure to understand exactly which
  total energy value is referred to by a given number. Different objects may
  all carry the same name 'total energy'. Definitions:

  Total energy of the DFT / Hartree-Fock s.c.f. calculation:
  | Note that this energy does not include ANY quantities calculated after the
  | s.c.f. cycle, in particular not ANY RPA, MP2, etc. many-body perturbation terms.

  Final zero-broadening corrected energy:
  | For metallic systems only, a broadening of the occupation numbers at the Fermi
  | level can be extrapolated back to zero broadening by an electron-gas inspired
  | formula. For all systems that are not real metals, this value can be
  | meaningless and should be avoided.

------------------------------------------------------------------------------
  Methods described in the following list of references were used in this FHI-aims run.
  If you publish the results, please make sure to cite these reference if they apply.
  FHI-aims is an academic code, and for our developers (often, Ph.D. students
  and postdocs), scientific credit in the community is essential.
  Thank you for helping us!

  For any use of FHI-aims, please cite:

    Volker Blum, Ralf Gehrke, Felix Hanke, Paula Havu, Ville Havu,
    Xinguo Ren, Karsten Reuter, and Matthias Scheffler
    'Ab initio molecular simulations with numeric atom-centered orbitals'
    Computer Physics Communications 180, 2175-2196 (2009)
    http://doi.org/10.1016/j.cpc.2009.06.022


  For the analytical stress tensor used in your run, please cite:

    Franz Knuth, Christian Carbogno, Viktor Atalla, Volker Blum, Matthias Scheffler
    'All-electron formalism for total energy strain derivatives and
    stress tensor components for numeric atom-centered orbitals'
    Computer Physics Communications 190, 33-50 (2015).
    http://doi.org/10.1016/j.cpc.2015.01.003


  The provided symmetry information was generated with SPGlib:

    Atsushi Togo, Yusuke Seto, Dimitar Pashov
    SPGlib 1.7.3 obtained from http://spglib.sourceforge.net
    Copyright (C) 2008 Atsushi Togo


  The ELSI infrastructure was used in your run to solve the Kohn-Sham electronic structure.
  Please check out http://elsi-interchange.org to learn more.
  If scalability is important for your project, please acknowledge ELSI by citing:

    V. W-z. Yu, F. Corsetti, A. Garcia, W. P. Huhn, M. Jacquelin, W. Jia,
    B. Lange, L. Lin, J. Lu, W. Mi, A. Seifitokaldani, A. Vazquez-Mayagoitia,
    C. Yang, H. Yang, and V. Blum
    'ELSI: A unified software interface for Kohn-Sham electronic structure solvers'
    Computer Physics Communications 222, 267-285 (2018).
    http://doi.org/10.1016/j.cpc.2017.09.007


  For the real-space grid partitioning and parallelization used in this calculation, please cite:

    Ville Havu, Volker Blum, Paula Havu, and Matthias Scheffler,
    'Efficient O(N) integration for all-electron electronic structure calculation'
    'using numerically tabulated basis functions'
    Journal of Computational Physics 228, 8367-8379 (2009).
    http://doi.org/10.1016/j.jcp.2009.08.008

  Of course, there are many other important community references, e.g., those cited in the
  above references. Our list is limited to references that describe implementations in the
  FHI-aims code. The reason is purely practical (length of this list) - please credit others as well.

------------------------------------------------------------
          Leaving FHI-aims.
          Date     :  20230814, Time     :  171112.480

          Computational steps:
          | Number of self-consistency cycles          :           18
          | Number of SCF (re)initializations          :            1
          | Number of relaxation steps                 :            0

          Detailed time accounting                     :  max(cpu_time)    wall_clock(cpu1)
          | Total time                                  :    10264.785 s       10307.125 s
          | Preparation time                            :        0.574 s           0.653 s
          | Boundary condition initalization            :        0.862 s           0.870 s
          | Grid partitioning                           :       15.422 s          15.749 s
          | Preloading free-atom quantities on grid     :       30.491 s          30.711 s
          | Free-atom superposition energy              :        6.486 s           6.508 s
          | Total time for integrations                 :     1146.556 s        1150.012 s
          | Total time for solution of K.-S. equations  :      205.722 s         208.850 s
          | Total time for EV reorthonormalization      :        0.000 s           0.000 s
          | Total time for density & force components   :     3955.754 s        3974.384 s
          | Total time for mixing & preconditioning     :     1008.930 s        1009.488 s
          | Total time for Hartree multipole update     :        1.631 s           2.124 s
          | Total time for Hartree multipole sum        :     3138.855 s        3147.942 s
          | Total time for total energy evaluation      :        0.009 s           0.454 s
          | Total time NSC force correction             :      676.551 s         677.081 s
          | Total time for scaled ZORA corrections      :        0.000 s           0.000 s
          | Total time for vdW correction               :       75.746 s          76.035 s

          Partial memory accounting:
          | Residual value for overall tracked memory usage across tasks:     0.000000 MB (should be 0.000000 MB)
          | Peak values for overall tracked memory usage:
          |   Minimum:      311.626 MB (on task 0 after allocating eval_tmp)
          |   Maximum:      311.626 MB (on task 0 after allocating eval_tmp)
          |   Average:      311.626 MB
          | Largest tracked array allocation:
          |   Minimum:      165.715 MB (KS_eigenvector on task 0)
          |   Maximum:      165.715 MB (KS_eigenvector on task 0)
          |   Average:      165.715 MB
          Note:  These values currently only include a subset of arrays which are explicitly tracked.
          The "true" memory usage will be greater.

          Have a nice day.
------------------------------------------------------------
