------------------------------------------------------------
          Invoking FHI-aims ...

          When using FHI-aims, please cite the following reference:

            Volker Blum, Ralf Gehrke, Felix Hanke, Paula Havu,
            Ville Havu, Xinguo Ren, Karsten Reuter, and Matthias Scheffler,
            'Ab Initio Molecular Simulations with Numeric Atom-Centered Orbitals',
            Computer Physics Communications 180, 2175-2196 (2009)

          In addition, many other developments in FHI-aims are likely important for
          your particular application. A partial list of references is given at the end of
          this file. Thank you for giving credit to the authors of these developments.

          For any questions about FHI-aims, please visit our slack channel at

            https://fhi-aims.slack.com

          and our main development and support site at

            https://aims-git.rz-berlin.mpg.de .

          The latter site, in particular, has a wiki to collect information, as well
          as an issue tracker to log discussions, suggest improvements, and report issues
          or bugs. https://aims-git.rz-berlin.mpg.de is also the main development site
          of the project and all new and updated code versions can be obtained there.
          Please send an email to aims-coordinators@fhi-berlin.mpg.de and we will add
          you to these sites. They are for you and everyone is welcome there.

------------------------------------------------------------



  Date     :  20230815, Time     :  110114.385
  Time zero on CPU 1             :   0.240800000000000E-01  s.
  Internal wall clock time zero  :           461329274.385  s.

  FHI-aims created a unique identifier for this run for later identification
  aims_uuid : C5B33B6E-11E4-46A2-AF27-572253C516F8

  Build configuration of the current instance of FHI-aims
  -------------------------------------------------------
  FHI-aims version      : 221103
  Commit number         : GITDIR-NOTFOUND
  CMake host system     : Linux-5.14.21-150400.24.46_12.0.70-cray_shasta_c
  CMake version         : 3.21.3
  Fortran compiler      : /opt/cray/pe/craype/2.7.19/bin/ftn (GNU) version 11.2.0
  Fortran compiler flags: -O2 -fallow-argument-mismatch -ffree-line-length-none
  C compiler            : /opt/cray/pe/craype/2.7.19/bin/cc (GNU) version 11.2.0
  C compiler flags      : -O2
  HIP compiler          :
  HIP compiler flags    :
  HIP GPU arch          :
  Using MPI
  Using ScaLAPACK
  Using LibXC
  Using i-PI
  Using RLSY
  Linking against:

  Using        1 parallel tasks.
  Task        0 on host ln04 reporting.

  Performing system and environment tests:
  *** Environment variable OMP_NUM_THREADS is not set
  *** For performance reasons you might want to set it to 1
  | Checking for ScaLAPACK...
  | Testing pdtran()...
  | All pdtran() tests passed.

  Obtaining array dimensions for all initial allocations:
  
  -----------------------------------------------------------------------
  Parsing control.in (first pass over file, find array dimensions only).
  The contents of control.in will be repeated verbatim below
  unless switched off by setting 'verbatim_writeout .false.' .
  in the first line of control.in .
  -----------------------------------------------------------------------
  
  xc                 pbe
  vdw_correction_hirshfeld_alkali
  spin               none
  relativistic       atomic_zora scalar
  
  #k-points
  #k_grid	2	2	2
  
  # SCF convergence
  occupation_type    gaussian 0.01
  mixer              pulay
  n_max_pulay        8            # default value 8
  charge_mix_param   0.2          # non-metallic conservative value
  sc_accuracy_eev    1E-3         # eigen value check
  #sc_accuracy_rho    1E-6         # density check
  #sc_accuracy_etot   1E-5
  #sc_accuracy_forces 1E-4
  
  sc_accuracy_forces not_checked
  sc_iter_limit   4000
  
  # Relaxation
  #relax_unit_cell  full
  relax_geometry   bfgs 1.e-3
  ################################################################################
  #
  #  FHI-aims code project
  #  Volker Blum, 2017
  #
  #  Suggested "intermediate" defaults for Pb atom (to be pasted into control.in file)
  #
  ################################################################################
    species        Pb
  #     global species definitions
      nucleus             82
      mass                207.2
  #
      l_hartree           6
  #
      cut_pot             4.0  2.0  1.0
      basis_dep_cutoff    1e-4
  #
      radial_base         74 7.0
      radial_multiplier   2
      angular_grids specified
        division   0.1064  110
        division   0.1579  194
        division   0.2150  302
        division   1.0164  434
  #      division   1.1544  590
  #      division   1.1970  770
  #      division   7.7779  974
  #      outer_grid  974
        outer_grid  434
   ################################################################################
  #
  #  Definition of "minimal" basis
  #
  ################################################################################
  #     valence basis states
      valence      6  s   2.
      valence      6  p   2.
      valence      5  d  10.
      valence      4  f  14.
  #     ion occupancy
      ion_occ     6  s    1.
      ion_occ     6  p    1.
      ion_occ     5  d   10.
      ion_occ     4  f   14.
  ################################################################################
  #
  #  Suggested additional basis functions. For production calculations,
  #  uncomment them one after another (the most important basis functions are
  #  listed first).
  #
  #  Constructed for dimers: 2.225, 2.50, 2.88, 3.625, 4.50
  #
  ################################################################################
  #  "First tier" - max. impr. -156.54 meV, min. impr. -14.49 meV
       hydro 3 p 2.3
       hydro 4 f 7.6
       hydro 3 d 3.5
       for_aux    hydro 5 g 9.8
       hydro 3 s 3.2
  #  "Second tier" - max. impr. -4.38  meV, min. impr. -0.30 meV
  #     hydro 6 h 12.8
  #     hydro 3 d 2.4
  #     hydro 5 f 7.2
  #     hydro 5 f 14.8
  #     hydro 4 p 5.4
  #     ionic 6 s auto
  #  "Third tier" - max. impr. -0.86 meV, min. impr. -0.16 meV
  #     hydro 5 p 14.4
  #     hydro 5 g 8.2
  #     hydro 4 d 4.6
  #     hydro 6 h 12.4
  #     hydro 6 d 12.4
  #     hydro 4 s 4
  #     hydro 5 g 32.8
  #     hydro 5 f 9.4
  #  Further functions: -0.10 meV and below
  #     hydro 5 f 17.6
  #     hydro 7 p 19.6
  ################################################################################
  #
  #  FHI-aims code project
  #  Volker Blum, Fritz Haber Institute Berlin, 2009
  #  Tong Zhu, Will Huhn and Volker Blum, Duke University 2018
  #
  #  Suggested "intermediate" defaults for Cs atom (to be pasted into control.in file)
  #
  #  Rb, Sr, Cs and Ba are very large atoms. This requires uncomfortably large
  #  cut_pot radii (the high cut_pot values are especially costly for hybrid DFT
  #  calculations, both regarding time and memory). Additionally, since they are
  #  relatively heavy elements, high-accuracy basis set convergence actually
  #  requires more radial functions than for their light-element counterparts.
  #
  #  Compared to the "tight" settings, the "intermediate" settings for Cs are
  #  reduced in the following way:
  #
  #  - cut_pot from 6.0 Angstrom to 5.5 Angstrom
  #
  #  The cut_pot value has a noticeable effect particularly for neutral situations
  #  (the Cs dimer is a good example) and we were not comfortable with reducing it more.
  #  ("intermediate" still implies high accuracy.) However, a comparison to the "light"
  #  settings (which are not crazy) shows that further reductions are possible in many
  #  situations, if the cut_pot value for Cs is the bottleneck. (Note that some internal
  #  cutoffs in current FHI-aims are set according to the largest atom, and so in principle,
  #  even a single Cs atom in a large structure can have a noticeable effect on memory and
  #  speed.)
  #
  ################################################################################
    species          Cs
  #     global species definitions
      nucleus        55
      mass           132.9054519
  #
      l_hartree      6
  #
      cut_pot        5.5  2.0  1.0
      basis_dep_cutoff    1e-4
  #
      radial_base    65  7.0
      radial_multiplier  2
      angular_grids specified
        division   0.7542  110
        division   1.0056  194
        division   1.2887  302
        division   1.4138  434
  #      division   1.5042  590
  #      division   1.6519  770
  #      outer_grid  974
        outer_grid  434
  ################################################################################
  #
  #  Definition of "minimal" basis
  #
  ################################################################################
  #     valence basis states
      valence      6  s   1.
      valence      5  p   6.
      valence      4  d  10.
  #     ion occupancy
      ion_occ      6  s   0.
      ion_occ      5  p   6.
      ion_occ      4  d  10.
  ################################################################################
  #
  #  Suggested additional basis functions. For production calculations,
  #  uncomment them one after another (the most important basis functions are
  #  listed first).
  #
  #  Constructed for dimers: 2.70, 3.50, 4.50, 5.50 Ang
  #
  ################################################################################
  #  "First tier" - improvements: -138.41 meV to -7.10 meV
       hydro 3 d 3.9
       hydro 4 f 6.4
       hydro 3 p 2.3
       hydro 4 s 2.7
  #  "Second tier" - improvements: -6.08 meV to -0.77 meV
       hydro 4 d 3.9
  #     hydro 4 f 20.8
  #     hydro 5 g 8.6
  #     hydro 5 f 41.6
  #     hydro 6 h 11.6
  #     hydro 4 p 7.0
  #     hydro 4 s 3.8
  #  "Third tier" - max. impr. -0.54 meV, min. impr. -0.09 meV
  #     hydro 5 d 10
  #     hydro 5 f 17.6
  #     hydro 4 p 3.5
  #     hydro 5 f 7.4
  #     hydro 1 s 2.3
  #     hydro 5 g 11.6
  #  One more function - impr. -0.05 meV
  #     hydro 6 d 17.2
  ################################################################################
  #
  #  FHI-aims code project
  #  Volker Blum, 2018
  #
  #  Suggested "intermediate" defaults for Br atom (to be pasted into control.in file)
  #
  #  2020/09/15 These "intermediate" settings are identical to past "tight" defaults
  #             and differ only in the "g" function that is now included in "tight".
  #
  ################################################################################
    species        Br
  #     global species definitions
      nucleus             35
      mass                79.904
  #
      l_hartree           6
  #
      cut_pot             4.0          2.0  1.0
      basis_dep_cutoff    1e-4
  #
      radial_base         56 7.0
      radial_multiplier   2
      angular_grids       specified
        division   0.0871  110
        division   0.1400  194
        division   0.7896  302
        division   0.8837  434
  #      division   0.9869  590
  #      division   1.0613  770
  #      division   2.6835  974
  #      outer_grid  974
        outer_grid  434
  ################################################################################
  #
  #  Definition of "minimal" basis
  #
  ################################################################################
  #     valence basis states
      valence      4  s   2.
      valence      4  p   5.
      valence      3  d  10.
  #     ion occupancy
      ion_occ      4  s   1.
      ion_occ      4  p   4.
      ion_occ      3  d  10.
  ################################################################################
  #
  #  Suggested additional basis functions. For production calculations,
  #  uncomment them one after another (the most important basis functions are
  #  listed first).
  #
  #  Constructed for dimers: 1.90 A, 2.25 A, 2.75 A, 3.25 A, 4.00 A
  #
  ################################################################################
  #  "First tier" - improvements: -247.24 meV to -20.97 meV
       hydro 3 d 4.6
       hydro 2 p 1.7
       hydro 4 f 7.6
       ionic 4 s auto
  #  "Second tier" - improvements: -9.01 meV to -0.73 meV
  #     hydro 5 g 10.4
  #     hydro 3 d 4.1
  #     hydro 6 h 14.8
  #     hydro 4 p 4.7
  #     hydro 1 s 0.7
  #     hydro 4 f 12.4
  #  "Third tier" - improvements: -0.26 meV and below
  #     hydro 5 f 14.8
  #     hydro 5 d 7.8
  #     hydro 5 g 14.4
  #     ionic 4 p auto
  #     hydro 3 s 3.2
  #  "Fourth tier" - improvements: -0.09 meV and below
  #     hydro 5 f 25.6
  #     hydro 5 d 11.2
  #     hydro 3 p 3.9
  #     hydro 6 h 16.8
  #     hydro 5 g 13.2
  #     hydro 5 s 5.4
  ################################################################################
  #
  #  FHI-aims code project
  #  Volker Blum, 2018
  #
  #  Suggested "intermediate" defaults for I atom (to be pasted into control.in file)
  #
  #  2020/09/15 These "intermediate" settings are identical to past "tight" defaults
  #             and differ only in the "g" function that is now included in "tight".
  #
  ################################################################################
    species          I
  #     global species definitions
      nucleus        53
      mass           126.90447
  #
      l_hartree      6
  #
      cut_pot        4.0  2.0  1.0
      basis_dep_cutoff    1e-4
  #
      radial_base    64  7.0
      radial_multiplier  2
      angular_grids specified
        division   0.1103  110
        division   0.1515  194
        division   0.9554  302
  #      division   1.1196  590
  #      division   1.1922  770
  #      division   6.1948  974
  #      outer_grid  974
        outer_grid  434
  ################################################################################
  #
  #  Definition of "minimal" basis
  #
  ################################################################################
  #     valence basis states
      valence      5  s   2.
      valence      5  p   5.
      valence      4  d  10.
  #     ion occupancy
      ion_occ      5  s   1.
      ion_occ      5  p   4.
      ion_occ      4  d  10.
  ################################################################################
  #
  #  Suggested additional basis functions. For production calculations,
  #  uncomment them one after another (the most important basis functions are
  #  listed first).
  #
  #  Constructed for dimers: 2.22, 2.65, 3.25, 4.25 Ang
  #
  ################################################################################
  #  "First tier" - improvements: -270.74 meV to -21.24 meV
       hydro 3 d 4
       hydro 4 f 6.4
       hydro 2 p 1.6
       ionic 5 s auto
  #  "Second tier" - improvements: -16.39 meV to -0.39 meV
  #     hydro 5 g 9.4
  #     hydro 4 f 18.4
  #     hydro 6 h 12.4
  #     hydro 4 p 4.5
  #     hydro 3 d 4.2
  #     hydro 3 s 3.0
  #  "Third tier" - max. impr. -0.76 meV, min. impr. -0.06 meV
  #     hydro 5 f 15.6
  #     hydro 5 g 12
  #     hydro 5 d 16
  #     hydro 4 f 42
  #     hydro 6 h 15.2
  #     ionic 5 p auto
  #     hydro 1 s 6.2
  #  Further functions that fell out of the optimization: -0.10 meV and below
  #     hydro 4 f 7
  #     hydro 6 p 9
  #     hydro 2 s 6.4
  
  -----------------------------------------------------------------------
  Completed first pass over input file control.in .
  -----------------------------------------------------------------------
  
  
  -----------------------------------------------------------------------
  Parsing geometry.in (first pass over file, find array dimensions only).
  The contents of geometry.in will be repeated verbatim below
  unless switched off by setting 'verbatim_writeout .false.' .
  in the first line of geometry.in .
  -----------------------------------------------------------------------
  
  atom	0	0	0	Pb
  atom	2.6	0	0	Br
  
  -----------------------------------------------------------------------
  Completed first pass over input file geometry.in .
  -----------------------------------------------------------------------
  

  Basic array size parameters:
  | Number of species                 :        4
  | Number of atoms                   :        2
  | Max. basis fn. angular momentum   :        4
  | Max. atomic/ionic basis occupied n:        6
  | Max. number of basis fn. types    :        3
  | Max. radial fns per species/type  :       15
  | Max. logarithmic grid size        :     1491
  | Max. radial integration grid size :      149
  | Max. angular integration grid size:      434
  | Max. angular grid division number :        8
  | Radial grid for Hartree potential :     1491
  | Number of spin channels           :        1

------------------------------------------------------------
          Reading file control.in.
------------------------------------------------------------
  XC: Using PBE gradient-corrected functionals.
  Spin treatment: No spin polarisation.
  Scalar relativistic treatment of kinetic energy: on-site free-atom approximation to ZORA.
  Occupation type: Gaussian broadening, width =   0.100000E-01 eV.
  Using pulay charge density mixing.
  Pulay mixing - number of memorized iterations:    8
  Charge density mixing - mixing parameter:     0.2000
  Convergence accuracy of sum of eigenvalues:  0.1000E-02
  | Force self-consistency will not be checked explicitly.
  Maximum number of s.-c. iterations  :  4000
  Geometry relaxation: Modified BFGS - TRM (trust radius method) for lattice optimization.
  Convergence accuracy for geometry relaxation: Maximum force <   0.100000E-02 eV/A.

  Reading configuration options for species Pb                  .
  | Found nuclear charge :  82.0000
  | Found atomic mass :    207.19999999999999      amu
  | Found l_max for Hartree potential  :   6
  | Found cutoff potl. onset [A], width [A], scale factor :    4.00000    2.00000    1.00000
  | Threshold for basis-dependent cutoff potential is   0.100000E-03
  | Found data for basic radial integration grid :    74 points, outermost radius =    7.000 A
  | Found multiplier for basic radial grid :   2
  | Found angular grid specification: user-specified.
  | Specified grid contains     5 separate shells.
  | Check grid settings after all constraints further below.
  | Found free-atom valence shell :  6 s   2.000
  | Found free-atom valence shell :  6 p   2.000
  | Found free-atom valence shell :  5 d  10.000
  | Found free-atom valence shell :  4 f  14.000
  | Found free-ion valence shell :  6 s   1.000
  | Found free-ion valence shell :  6 p   1.000
  | Found free-ion valence shell :  5 d  10.000
  | Found free-ion valence shell :  4 f  14.000
  | Found hydrogenic basis function :  3 p   2.300
  | Found hydrogenic basis function :  4 f   7.600
  | Found hydrogenic basis function :  3 d   3.500
  | Found hydrogenic extended basis function :  5 g   9.800
  | Found hydrogenic basis function :  3 s   3.200
  Species Pb                  : Missing cutoff potential type.
  Defaulting to exp(1/x)/(1-x)^2 type cutoff potential.
  Species Pb: No 'logarithmic' tag. Using default grid for free atom:
  | Default logarithmic grid data [bohr] : 0.1000E-03 0.1000E+03 0.1012E+01
  Species Pb: On-site basis accuracy parameter (for Gram-Schmidt orthonormalisation) not specified.
  Using default value basis_acc =  0.1000000E-03.
  Species Pb                  : Using default innermost maximum threshold i_radial=  2 for radial functions.
  Species Pb                  : Default cutoff onset for free atom density etc. : 0.40000000E+01 AA.
  Species Pb                  : Basic radial grid will be enhanced according to radial_multiplier =   2, to contain   149 grid points.

  Reading configuration options for species Cs                  .
  | Found nuclear charge :  55.0000
  | Found atomic mass :    132.90545190000000      amu
  | Found l_max for Hartree potential  :   6
  | Found cutoff potl. onset [A], width [A], scale factor :    5.50000    2.00000    1.00000
  | Threshold for basis-dependent cutoff potential is   0.100000E-03
  | Found data for basic radial integration grid :    65 points, outermost radius =    7.000 A
  | Found multiplier for basic radial grid :   2
  | Found angular grid specification: user-specified.
  | Specified grid contains     5 separate shells.
  | Check grid settings after all constraints further below.
  | Found free-atom valence shell :  6 s   1.000
  | Found free-atom valence shell :  5 p   6.000
  | Found free-atom valence shell :  4 d  10.000
  | Found free-ion valence shell :  6 s   0.000
  | Found free-ion valence shell :  5 p   6.000
  | Found free-ion valence shell :  4 d  10.000
  | Found hydrogenic basis function :  3 d   3.900
  | Found hydrogenic basis function :  4 f   6.400
  | Found hydrogenic basis function :  3 p   2.300
  | Found hydrogenic basis function :  4 s   2.700
  | Found hydrogenic basis function :  4 d   3.900
  Species Cs                  : Missing cutoff potential type.
  Defaulting to exp(1/x)/(1-x)^2 type cutoff potential.
  Species Cs: No 'logarithmic' tag. Using default grid for free atom:
  | Default logarithmic grid data [bohr] : 0.1000E-03 0.1000E+03 0.1012E+01
  Species Cs: On-site basis accuracy parameter (for Gram-Schmidt orthonormalisation) not specified.
  Using default value basis_acc =  0.1000000E-03.
  Species Cs                  : Using default innermost maximum threshold i_radial=  2 for radial functions.
  Species Cs                  : Default cutoff onset for free atom density etc. : 0.55000000E+01 AA.
  Species Cs                  : Basic radial grid will be enhanced according to radial_multiplier =   2, to contain   131 grid points.

  Reading configuration options for species Br                  .
  | Found nuclear charge :  35.0000
  | Found atomic mass :    79.903999999999996      amu
  | Found l_max for Hartree potential  :   6
  | Found cutoff potl. onset [A], width [A], scale factor :    4.00000    2.00000    1.00000
  | Threshold for basis-dependent cutoff potential is   0.100000E-03
  | Found data for basic radial integration grid :    56 points, outermost radius =    7.000 A
  | Found multiplier for basic radial grid :   2
  | Found angular grid specification: user-specified.
  | Specified grid contains     5 separate shells.
  | Check grid settings after all constraints further below.
  | Found free-atom valence shell :  4 s   2.000
  | Found free-atom valence shell :  4 p   5.000
  | Found free-atom valence shell :  3 d  10.000
  | Found free-ion valence shell :  4 s   1.000
  | Found free-ion valence shell :  4 p   4.000
  | Found free-ion valence shell :  3 d  10.000
  | Found hydrogenic basis function :  3 d   4.600
  | Found hydrogenic basis function :  2 p   1.700
  | Found hydrogenic basis function :  4 f   7.600
  | Found ionic basis function :  4 s , default cutoff radius.
  Species Br                  : Missing cutoff potential type.
  Defaulting to exp(1/x)/(1-x)^2 type cutoff potential.
  Species Br: No 'logarithmic' tag. Using default grid for free atom:
  | Default logarithmic grid data [bohr] : 0.1000E-03 0.1000E+03 0.1012E+01
  | Will include ionic basis functions of  2.0-fold positive Br                   ion.
  Species Br: On-site basis accuracy parameter (for Gram-Schmidt orthonormalisation) not specified.
  Using default value basis_acc =  0.1000000E-03.
  Species Br                  : Using default innermost maximum threshold i_radial=  2 for radial functions.
  Species Br                  : Default cutoff onset for free atom density etc. : 0.40000000E+01 AA.
  Species Br                  : Basic radial grid will be enhanced according to radial_multiplier =   2, to contain   113 grid points.

  Reading configuration options for species I                   .
  | Found nuclear charge :  53.0000
  | Found atomic mass :    126.90447000000000      amu
  | Found l_max for Hartree potential  :   6
  | Found cutoff potl. onset [A], width [A], scale factor :    4.00000    2.00000    1.00000
  | Threshold for basis-dependent cutoff potential is   0.100000E-03
  | Found data for basic radial integration grid :    64 points, outermost radius =    7.000 A
  | Found multiplier for basic radial grid :   2
  | Found angular grid specification: user-specified.
  | Specified grid contains     4 separate shells.
  | Check grid settings after all constraints further below.
  | Found free-atom valence shell :  5 s   2.000
  | Found free-atom valence shell :  5 p   5.000
  | Found free-atom valence shell :  4 d  10.000
  | Found free-ion valence shell :  5 s   1.000
  | Found free-ion valence shell :  5 p   4.000
  | Found free-ion valence shell :  4 d  10.000
  | Found hydrogenic basis function :  3 d   4.000
  | Found hydrogenic basis function :  4 f   6.400
  | Found hydrogenic basis function :  2 p   1.600
  | Found ionic basis function :  5 s , default cutoff radius.
  Species I                   : Missing cutoff potential type.
  Defaulting to exp(1/x)/(1-x)^2 type cutoff potential.
  Species I : No 'logarithmic' tag. Using default grid for free atom:
  | Default logarithmic grid data [bohr] : 0.1000E-03 0.1000E+03 0.1012E+01
  | Will include ionic basis functions of  2.0-fold positive I                    ion.
  Species I : On-site basis accuracy parameter (for Gram-Schmidt orthonormalisation) not specified.
  Using default value basis_acc =  0.1000000E-03.
  Species I                   : Using default innermost maximum threshold i_radial=  2 for radial functions.
  Species I                   : Default cutoff onset for free atom density etc. : 0.40000000E+01 AA.
  Species I                   : Basic radial grid will be enhanced according to radial_multiplier =   2, to contain   129 grid points.

  Finished reading input file 'control.in'.

------------------------------------------------------------


------------------------------------------------------------
          Reading geometry description geometry.in.
------------------------------------------------------------
  | The smallest distance between any two atoms is         2.60000000 AA.
  | The first atom of this pair is atom number                      1 .
  | The second atom of this pair is atom number                     2 .
  Input structure read successfully.
  The structure contains        2 atoms,  and a total of        117.000 electrons.

  Input geometry:
  | No unit cell requested.
  | Atomic structure:
  |       Atom                x [A]            y [A]            z [A]
  |    1: Species Pb            0.00000000        0.00000000        0.00000000
  |    2: Species Br            2.60000000        0.00000000        0.00000000


  Finished reading input file 'geometry.in'.



  Consistency checks for stacksize environment parameter are next.

  | Maximum stacksize for task 0: unlimited
  | Current stacksize for task 0: unlimited

  Consistency checks for the contents of control.in are next.

  MPI_IN_PLACE appears to work with this MPI implementation.
  | Keeping use_mpi_in_place .true. (see manual).
  Target number of points in a grid batch is not set. Defaulting to  100
  Method for grid partitioning is not set. Defaulting to parallel hash+maxmin partitioning.
  Batch size limit is not set. Defaulting to    200
  By default, will store active basis functions for each batch.
  If in need of memory, prune_basis_once .false. can be used to disable this option.
  communication_type for Hartree potential was not specified.
  Defaulting to calc_hartree .
  Pulay mixer: Number of initial linear mixing iterations not set.
  Defaulting to    0 iterations.
  Work space size for distributed Hartree potential not set.
  Defaulting to   0.200000E+03 MB.
  Algorithm-dependent basis array size parameters:
  | n_max_pulay                         :        8
  Presetting      1001 iterations before the initial mixing cycle
  is restarted anyway using the sc_init_iter criterion / keyword.
  Presetting a factor      1.000 between actual scf density residual
  and density convergence criterion sc_accuracy_rho below which sc_init_iter
  takes no effect.
  No maximum number of relaxation steps, defaulting to     1000
  Default initial Hessian is Lindh matrix (thres = 15.00) plus  0.200000E+01 eV/A^2 times unity.
  No maximum energy tolerance for TRM/BFGS moves, defaulting to   0.150000E-02
  Maximum energy tolerance by which TRM/BFGS trajectory may increase over multiple steps:   0.300000E-02
  No harmonic length scale. Defaulting to   0.250000E-01 A.
  No trust radius initializer. Defaulting to   0.200000E+00 A.
  Forces evaluation will include force correction term due to incomplete self-consistency (default).
 * Notice: The s.c.f. convergence criterion sc_accuracy_rho was not provided.
 * We used to stop in this case, and ask the user to provide reasonable
 * scf convergence criteria. However, this led some users to employ criteria
 * that led to extremely long run times, e.g., for simple relaxation.
 * We now preset a default value for sc_accuracy_rho if it is not set.
 * You may still wish to check if this setting is too tight or too loose for your needs.
 * Based on n_atoms and forces and force-correction status, FHI-aims chose sc_accuracy_rho =  0.800000E-05 .
  Handling of forces: Unphysical translation and rotation will be removed from forces.
  No accuracy limit for integral partition fn. given. Defaulting to  0.1000E-14.
  No threshold value for u(r) in integrations given. Defaulting to  0.1000E-05.
  No accuracy for occupation numbers given. Defaulting to  0.1000E-12.
  No threshold value for occupation numbers given. Defaulting to  0.0000E+00.
  No accuracy for fermi level given. Defaulting to  0.1000E-19.
  Maximum # of iterations to find E_F not set. Defaulting to  200.
  Preferred method for the eigenvalue solver ('KS_method') not specified in 'control.in'.
  Defaulting to serial version LAPACK (via ELSI).
  Will not use alltoall communication since running on < 1024 CPUs.
  Threshold for basis singularities not set.
  Default threshold for basis singularities:  0.1000E-04
  partition_type (choice of integration weights) for integrals was not specified.
  | Using a version of the partition function of Stratmann and coworkers ('stratmann_sparse').
  | At each grid point, the set of atoms used to build the partition table is smoothly restricted to
  | only those atoms whose free-atom density would be non-zero at that grid point.
  Partitioning for Hartree potential was not defined. Using partition_type for integrals.
  | Adjusted default value of keyword multip_moments_threshold to:       0.10000000E-11
  | This value may affect high angular momentum components of the Hartree potential in periodic systems.
  No q(lm)/r^(l+1) cutoff set for long-range Hartree potential.
  | Using default value of  0.100000E-09 .
  | Verify using the multipole_threshold keyword.
  Defaulting to new monopole extrapolation.
  Density update method: automatic selection selected.
  Geometry relaxation: A file "geometry.in.next_step" is written out by default after each step.
  | This file contains the geometry of the current relaxation step as well as
  | the current Hessian matrix needed to restart the relaxation algorithm.
  | If you do not want part or all of this information, use the keywords
  | "write_restart_geometry" or "hessian_to_restart_geometry" to switch the output off.
  Charge integration errors on the 3D integration grid will be compensated
  by explicit normalization and distribution of residual charges.
  Use the "compensate_multipole_errors" flag to change this behaviour.
  Set 'collect_eigenvectors' to be '.true.' for all serial calculations. This is mandatory.
  Set 'collect_eigenvectors' to be '.true.' for use_density_matrix .false.
  Set 'collect_eigenvectors' to be '.true.' for KS_method lapack_fast and serial.

  Consistency checks for the contents of geometry.in are next.

  Number of empty states per atom not set in control.in - providing a guess from actual geometry.
  | Total number of empty states used during s.c.f. cycle:       15
  If you use a very high smearing, use empty_states (per atom!) in control.in to increase this value.

  Structure-dependent array size parameters: 
  | Maximum number of distinct radial functions  :       64
  | Maximum number of basis functions            :      102
  | Number of Kohn-Sham states (occupied + empty):       74
------------------------------------------------------------

------------------------------------------------------------
          Preparing all fixed parts of the calculation.
------------------------------------------------------------
  Determining machine precision:
     2.2250738585072014E-308
  Setting up grids for atomic and cluster calculations.

  Creating wave function, potential, and density for free atoms.
  Runtime choices for atomic solver:
  | atomic solver xc        : PBE
  | compute density gradient: 1
  | compute kinetic density : F

  Species: Pb

  List of occupied orbitals and eigenvalues:
    n    l              occ      energy [Ha]    energy [eV]
    1    0           2.0000     -3583.277747    -97505.9486
    2    0           2.0000      -591.290564    -16089.8349
    3    0           2.0000      -139.817779     -3804.6353
    4    0           2.0000       -31.500228      -857.1648
    5    0           2.0000        -5.285996      -143.8393
    6    0           2.0000        -0.435949       -11.8628
    2    1           6.0000      -505.946867    -13767.5147
    3    1           6.0000      -115.940668     -3154.9061
    4    1           6.0000       -23.734264      -645.8422
    5    1           6.0000        -3.143583       -85.5412
    6    1           2.0000        -0.122377        -3.3300
    3    2          10.0000       -91.725457     -2495.9767
    4    2          10.0000       -14.775440      -402.0602
    5    2          10.0000        -0.771604       -20.9964
    4    3          14.0000        -4.888066      -133.0110


  Species: Cs

  List of occupied orbitals and eigenvalues:
    n    l              occ      energy [Ha]    energy [eV]
    1    0           2.0000     -1370.517962    -37293.6912
    2    0           2.0000      -207.940437     -5658.3472
    3    0           2.0000       -42.963368     -1169.0927
    4    0           2.0000        -8.088324      -220.0945
    5    0           2.0000        -0.975113       -26.5342
    6    0           1.0000        -0.070511        -1.9187
    2    1           6.0000      -186.423076     -5072.8300
    3    1           6.0000       -36.102172      -982.3901
    4    1           6.0000        -5.901007      -160.5746
    5    1           6.0000        -0.489794       -13.3280
    3    2          10.0000       -26.056965      -709.0461
    4    2          10.0000        -2.722006       -74.0695


  Species: Br

  List of occupied orbitals and eigenvalues:
    n    l              occ      energy [Ha]    energy [eV]
    1    0           2.0000      -497.115120    -13527.1907
    2    0           2.0000       -63.852263     -1737.5085
    3    0           2.0000        -8.750857      -238.1229
    4    0           2.0000        -0.739442       -20.1212
    2    1           6.0000       -56.304457     -1532.1222
    3    1           6.0000        -6.375550      -173.4875
    4    1           5.0000        -0.288435        -7.8487
    3    2          10.0000        -2.452229       -66.7286


  Species: I

  List of occupied orbitals and eigenvalues:
    n    l              occ      energy [Ha]    energy [eV]
    1    0           2.0000     -1258.773426    -34252.9677
    2    0           2.0000      -188.593391     -5131.8873
    3    0           2.0000       -37.851314     -1029.9867
    4    0           2.0000        -6.635220      -180.5535
    5    0           2.0000        -0.638654       -17.3787
    2    1           6.0000      -169.180733     -4603.6420
    3    1           6.0000       -31.613243      -860.2401
    4    1           6.0000        -4.685544      -127.5002
    5    1           5.0000        -0.259505        -7.0615
    3    2          10.0000       -22.293102      -606.6262
    4    2          10.0000        -1.847107       -50.2623


  Adding cutoff potential to free-atom effective potential.
  Creating fixed part of basis set: Ionic, confined, hydrogenic.

  Pb                   hydrogenic:

  List of hydrogenic basis orbitals: 
    n    l      effective z      eigenvalue [eV]  inner max. [A]     outer max. [A]     outer radius [A]   
    3    1         2.300000        -7.5446           0.685138           2.629026           5.474563
    4    3         7.600000       -49.1164           1.117244           1.117244           4.785726
    3    2         3.500000       -18.5140           1.358613           1.358613           5.408044
    3    0         3.200000       -15.4178           0.122229           2.161957           5.474563

  List of extra hydrogenic orbitals for auxiliary basis: 
    n    l      effective z      eigenvalue [eV]  inner max. [A]     outer max. [A]     outer radius [A]   
    5    4         9.800000       -52.2674           1.342105           1.342105           5.149953


  Cs                   hydrogenic:

  List of hydrogenic basis orbitals: 
    n    l      effective z      eigenvalue [eV]  inner max. [A]     outer max. [A]     outer radius [A]   
    3    2         3.900000       -22.9933           1.227066           1.227066           5.725753
    4    3         6.400000       -34.8303           1.320454           1.320454           5.452499
    3    1         2.300000        -7.9576           0.690770           2.749654           6.962745
    4    0         2.700000        -5.3203           0.142706           4.375516           6.962745
    4    2         3.900000       -12.9111           0.926308           2.887453           6.962745


  Br                   ion:

  List of free ionic orbitals and eigenvalues:
    n    l      energy [Ha]    energy [eV]
    1    0      -498.089905    -13553.7159
    2    0       -64.804923     -1763.4317
    3    0        -9.695815      -263.8366
    4    0        -1.567249       -42.6470
    2    1       -57.257825     -1558.0647
    3    1        -7.319837      -199.1829
    4    1        -1.062256       -28.9055
    3    2        -3.393643       -92.3457


  List of ionic basis orbitals and eigenvalues:
    n    l      energy [Ha]    energy [eV]    outer radius [A]
    4    0        -1.567243       -42.6468       3.870700


  Br                   hydrogenic:

  List of hydrogenic basis orbitals: 
    n    l      effective z      eigenvalue [eV]  inner max. [A]     outer max. [A]     outer radius [A]   
    3    2         4.600000       -31.9882           1.033692           1.033692           5.003611
    2    1         1.700000        -9.8152           1.241738           1.241738           5.450650
    4    3         7.600000       -49.1164           1.112363           1.112363           4.823428


  I                    ion:

  List of free ionic orbitals and eigenvalues:
    n    l      energy [Ha]    energy [eV]
    1    0     -1259.616275    -34275.9028
    2    0      -189.407359     -5154.0365
    3    0       -38.660218     -1051.9981
    4    0        -7.437098      -202.3737
    5    0        -1.350533       -36.7499
    2    1      -169.994585     -4625.7880
    3    1       -32.422014      -882.2479
    4    1        -5.486232      -149.2880
    5    1        -0.922314       -25.0974
    3    2       -23.101712      -628.6296
    4    2        -2.642763       -71.9132


  List of ionic basis orbitals and eigenvalues:
    n    l      energy [Ha]    energy [eV]    outer radius [A]
    5    0        -1.350527       -36.7497       4.219496


  I                    hydrogenic:

  List of hydrogenic basis orbitals: 
    n    l      effective z      eigenvalue [eV]  inner max. [A]     outer max. [A]     outer radius [A]   
    3    2         4.000000       -24.1871           1.197867           1.197867           5.388222
    4    3         6.400000       -34.8302           1.320938           1.320938           5.322752
    2    1         1.600000        -8.6828           1.320938           1.320938           5.454497

  Creating atomic-like basis functions for current effective potential.

  Species Pb                  :

  List of atomic basis orbitals and eigenvalues:
    n    l      energy [Ha]    energy [eV]    outer radius [A]
    1    0     -3583.277747    -97505.9486       0.114982
    2    0      -591.290564    -16089.8349       0.298366
    3    0      -139.817779     -3804.6353       0.621304
    4    0       -31.500228      -857.1648       1.278055
    5    0        -5.285996      -143.8393       2.934797
    6    0        -0.435949       -11.8628       5.342333
    2    1      -505.946867    -13767.5147       0.317173
    3    1      -115.940668     -3154.9061       0.668590
    4    1       -23.734264      -645.8422       1.426700
    5    1        -3.143583       -85.5412       3.657164
    6    1        -0.122377        -3.3300       5.474563
    3    2       -91.725457     -2495.9767       0.719474
    4    2       -14.775440      -402.0602       1.713844
    5    2        -0.771604       -20.9964       5.087378
    4    3        -4.888066      -133.0110       2.597082


  Species Cs                  :

  List of atomic basis orbitals and eigenvalues:
    n    l      energy [Ha]    energy [eV]    outer radius [A]
    1    0     -1370.517962    -37293.6912       0.184474
    2    0      -207.940437     -5658.3472       0.496574
    3    0       -42.963368     -1169.0927       1.085864
    4    0        -8.088324      -220.0945       2.403678
    5    0        -0.975113       -26.5342       6.161523
    6    0        -0.070511        -1.9187       6.962745
    2    1      -186.423076     -5072.8300       0.508865
    3    1       -36.102172      -982.3901       1.154308
    4    1        -5.901007      -160.5746       2.749654
    5    1        -0.489794       -13.3280       6.630458
    3    2       -26.056965      -709.0461       1.288561
    4    2        -2.722006       -74.0695       3.732580


  Species Br                  :

  List of atomic basis orbitals and eigenvalues:
    n    l      energy [Ha]    energy [eV]    outer radius [A]
    1    0      -497.115120    -13527.1907       0.300717
    2    0       -63.852263     -1737.5085       0.850048
    3    0        -8.750857      -238.1229       2.232922
    4    0        -0.739442       -20.1212       5.190525
    2    1       -56.304457     -1532.1222       0.881802
    3    1        -6.375550      -173.4875       2.523283
    4    1        -0.288435        -7.8487       5.384421
    3    2        -2.452229       -66.7286       3.685976


  Species I                   :

  List of atomic basis orbitals and eigenvalues:
    n    l      energy [Ha]    energy [eV]    outer radius [A]
    1    0     -1258.773426    -34252.9677       0.191435
    2    0      -188.593391     -5131.8873       0.515313
    3    0       -37.851314     -1029.9867       1.154731
    4    0        -6.635220      -180.5535       2.619390
    5    0        -0.638654       -17.3787       5.258077
    2    1      -169.180733     -4603.6420       0.528067
    3    1       -31.613243      -860.2401       1.227516
    4    1        -4.685544      -127.5002       3.033270
    5    1        -0.259505        -7.0615       5.388222
    3    2       -22.293102      -606.6262       1.387137
    4    2        -1.847107       -50.2623       4.377119

  Assembling full basis from fixed parts.
  | Species Pb :   atomic orbital   1 s accepted.
  | Species Pb :   atomic orbital   2 s accepted.
  | Species Pb :   atomic orbital   3 s accepted.
  | Species Pb :   atomic orbital   4 s accepted.
  | Species Pb :   atomic orbital   5 s accepted.
  | Species Pb :   atomic orbital   6 s accepted.
  | Species Pb :    hydro orbital   3 s accepted.
  | Species Pb :   atomic orbital   2 p accepted.
  | Species Pb :   atomic orbital   3 p accepted.
  | Species Pb :   atomic orbital   4 p accepted.
  | Species Pb :   atomic orbital   5 p accepted.
  | Species Pb :   atomic orbital   6 p accepted.
  | Species Pb :    hydro orbital   3 p accepted.
  | Species Pb :   atomic orbital   3 d accepted.
  | Species Pb :   atomic orbital   4 d accepted.
  | Species Pb :   atomic orbital   5 d accepted.
  | Species Pb :    hydro orbital   3 d accepted.
  | Species Pb :   atomic orbital   4 f accepted.
  | Species Pb :    hydro orbital   4 f accepted.
  | Species Cs :   atomic orbital   1 s accepted.
  | Species Cs :   atomic orbital   2 s accepted.
  | Species Cs :   atomic orbital   3 s accepted.
  | Species Cs :   atomic orbital   4 s accepted.
  | Species Cs :   atomic orbital   5 s accepted.
  | Species Cs :   atomic orbital   6 s accepted.
  | Species Cs :    hydro orbital   4 s accepted.
  | Species Cs :   atomic orbital   2 p accepted.
  | Species Cs :   atomic orbital   3 p accepted.
  | Species Cs :   atomic orbital   4 p accepted.
  | Species Cs :   atomic orbital   5 p accepted.
  | Species Cs :    hydro orbital   3 p accepted.
  | Species Cs :   atomic orbital   3 d accepted.
  | Species Cs :   atomic orbital   4 d accepted.
  | Species Cs :    hydro orbital   3 d accepted.
  | Species Cs :    hydro orbital   4 d accepted.
  | Species Cs :    hydro orbital   4 f accepted.
  | Species Br :   atomic orbital   1 s accepted.
  | Species Br :   atomic orbital   2 s accepted.
  | Species Br :   atomic orbital   3 s accepted.
  | Species Br :    ionic orbital   4 s accepted.
  | Species Br :   atomic orbital   4 s accepted.
  | Species Br :   atomic orbital   2 p accepted.
  | Species Br :   atomic orbital   3 p accepted.
  | Species Br :   atomic orbital   4 p accepted.
  | Species Br :    hydro orbital   2 p accepted.
  | Species Br :   atomic orbital   3 d accepted.
  | Species Br :    hydro orbital   3 d accepted.
  | Species Br :    hydro orbital   4 f accepted.
  | Species I :   atomic orbital   1 s accepted.
  | Species I :   atomic orbital   2 s accepted.
  | Species I :   atomic orbital   3 s accepted.
  | Species I :   atomic orbital   4 s accepted.
  | Species I :    ionic orbital   5 s accepted.
  | Species I :   atomic orbital   5 s accepted.
  | Species I :   atomic orbital   2 p accepted.
  | Species I :   atomic orbital   3 p accepted.
  | Species I :   atomic orbital   4 p accepted.
  | Species I :   atomic orbital   5 p accepted.
  | Species I :    hydro orbital   2 p accepted.
  | Species I :   atomic orbital   3 d accepted.
  | Species I :   atomic orbital   4 d accepted.
  | Species I :    hydro orbital   3 d accepted.
  | Species I :    hydro orbital   4 f accepted.

  Basis size parameters after reduction:
  | Total number of radial functions:       63
  | Total number of basis functions :       93

  Assembling extended basis for auxiliary basis.
  | Species Pb :   atomic orbital   1 s accepted.
  | Species Pb :   atomic orbital   2 s accepted.
  | Species Pb :   atomic orbital   3 s accepted.
  | Species Pb :   atomic orbital   4 s accepted.
  | Species Pb :   atomic orbital   5 s accepted.
  | Species Pb :   atomic orbital   6 s accepted.
  | Species Pb :    hydro orbital   3 s accepted.
  | Species Pb :   atomic orbital   2 p accepted.
  | Species Pb :   atomic orbital   3 p accepted.
  | Species Pb :   atomic orbital   4 p accepted.
  | Species Pb :   atomic orbital   5 p accepted.
  | Species Pb :   atomic orbital   6 p accepted.
  | Species Pb :    hydro orbital   3 p accepted.
  | Species Pb :   atomic orbital   3 d accepted.
  | Species Pb :   atomic orbital   4 d accepted.
  | Species Pb :   atomic orbital   5 d accepted.
  | Species Pb :    hydro orbital   3 d accepted.
  | Species Pb :   atomic orbital   4 f accepted.
  | Species Pb :    hydro orbital   4 f accepted.
  | Species Pb :    hydro orbital   5 g accepted.
  | Species Cs :   atomic orbital   1 s accepted.
  | Species Cs :   atomic orbital   2 s accepted.
  | Species Cs :   atomic orbital   3 s accepted.
  | Species Cs :   atomic orbital   4 s accepted.
  | Species Cs :   atomic orbital   5 s accepted.
  | Species Cs :   atomic orbital   6 s accepted.
  | Species Cs :    hydro orbital   4 s accepted.
  | Species Cs :   atomic orbital   2 p accepted.
  | Species Cs :   atomic orbital   3 p accepted.
  | Species Cs :   atomic orbital   4 p accepted.
  | Species Cs :   atomic orbital   5 p accepted.
  | Species Cs :    hydro orbital   3 p accepted.
  | Species Cs :   atomic orbital   3 d accepted.
  | Species Cs :   atomic orbital   4 d accepted.
  | Species Cs :    hydro orbital   3 d accepted.
  | Species Cs :    hydro orbital   4 d accepted.
  | Species Cs :    hydro orbital   4 f accepted.
  | Species Br :   atomic orbital   1 s accepted.
  | Species Br :   atomic orbital   2 s accepted.
  | Species Br :   atomic orbital   3 s accepted.
  | Species Br :    ionic orbital   4 s accepted.
  | Species Br :   atomic orbital   4 s accepted.
  | Species Br :   atomic orbital   2 p accepted.
  | Species Br :   atomic orbital   3 p accepted.
  | Species Br :   atomic orbital   4 p accepted.
  | Species Br :    hydro orbital   2 p accepted.
  | Species Br :   atomic orbital   3 d accepted.
  | Species Br :    hydro orbital   3 d accepted.
  | Species Br :    hydro orbital   4 f accepted.
  | Species I :   atomic orbital   1 s accepted.
  | Species I :   atomic orbital   2 s accepted.
  | Species I :   atomic orbital   3 s accepted.
  | Species I :   atomic orbital   4 s accepted.
  | Species I :    ionic orbital   5 s accepted.
  | Species I :   atomic orbital   5 s accepted.
  | Species I :   atomic orbital   2 p accepted.
  | Species I :   atomic orbital   3 p accepted.
  | Species I :   atomic orbital   4 p accepted.
  | Species I :   atomic orbital   5 p accepted.
  | Species I :    hydro orbital   2 p accepted.
  | Species I :   atomic orbital   3 d accepted.
  | Species I :   atomic orbital   4 d accepted.
  | Species I :    hydro orbital   3 d accepted.
  | Species I :    hydro orbital   4 f accepted.
  Per-task memory consumption for arrays in subroutine allocate_ext:
  |          24.435000MB.

  Extended basis size parameters after reduction:
  | Total number of radial functions:       64
  | Total number of basis functions :      102

  Testing on-site integration grid accuracy.
  |  Species  Function  <phi|h_atom|phi> (log., in eV)  <phi|h_atom|phi> (rad., in eV)
           1        1             -97505.9485680391             -97505.9276495936
           1        2             -16089.8348906439             -16089.8344607805
           1        3              -3804.6353443565              -3804.6353101081
           1        4               -857.1648256059               -857.1648151968
           1        5               -143.8392586886               -143.8392555171
           1        6                -11.8628859669                -11.8628857106
           1        7                  2.9645702034                  2.9644500427
           1        8             -13767.5147291405             -13767.5147191794
           1        9              -3154.9061047282              -3154.9060966840
           1       10               -645.8421711069               -645.8421650593
           1       11                -85.5412411309                -85.5412393489
           1       12                 -3.3380161838                 -3.3380215577
           1       13                  5.2821809386                  5.2821452458
           1       14              -2495.9766688123              -2495.9766658797
           1       15               -402.0601896018               -402.0601861509
           1       16                -20.9964082951                -20.9964076148
           1       17                  7.0343569075                  7.0343541688
           1       18               -133.0110431389               -133.0110421738
           1       19                 17.8397228945                 17.8397229786
           2       20             -37293.6912389182             -37293.6867864784
           2       21              -5658.3471974499              -5658.3471187039
           2       22              -1169.0927229108              -1169.0927134537
           2       23               -220.0945078830               -220.0945050512
           2       24                -26.5341621580                -26.5341615598
           2       25                 -1.9291149384                 -1.9310498852
           2       26                  2.6313478718                  2.6085503344
           2       27              -5072.8299970694              -5072.8299941408
           2       28               -982.3900826533               -982.3900781630
           2       29               -160.5745711553               -160.5745693133
           2       30                -13.3279772711                -13.3279769448
           2       31                 -0.0236600925                 -0.0251421560
           2       32               -709.0461040850               -709.0461025483
           2       33                -74.0695398243                -74.0695390780
           2       34                  1.4417274932                  1.4417252271
           2       35                  4.5757954168                  4.5748351890
           2       36                 11.4786194554                 11.4786183850
           3       37             -13527.1906657702             -13527.1899360973
           3       38              -1737.5084795902              -1737.5084683629
           3       39               -238.1229324574               -238.1229312936
           3       40                -19.9273115110                -19.9273113066
           3       41                  7.6499624949                  7.6499587738
           3       42              -1532.1222156686              -1532.1222148581
           3       43               -173.4875300807               -173.4875294801
           3       44                 -7.8489201515                 -7.8489220550
           3       45                  5.7581409463                  5.7580178689
           3       46                -66.7285540893                -66.7285539149
           3       47                  8.1511138460                  8.1511141019
           3       48                 25.3121174953                 25.3121177784
           4       49             -34252.9677052032             -34252.9638306598
           4       50              -5131.8872867477              -5131.8872205803
           4       51              -1029.9866563666              -1029.9866480421
           4       52               -180.5535283672               -180.5535259165
           4       53                -17.2239776520                -17.2239772043
           4       54                  5.8124335291                  5.8124424850
           4       55              -4603.6419806216              -4603.6419789518
           4       56               -860.2400979429               -860.2400938387
           4       57               -127.5001502525               -127.5001485540
           4       58                 -7.0620698656                 -7.0620674229
           4       59                  4.8228567464                  4.8229516613
           4       60               -606.6261828700               -606.6261813462
           4       61                -50.2623330545                -50.2623322888
           4       62                  5.6495635392                  5.6495654826
           4       63                 14.2152222557                 14.2152232957

  Preparing densities etc. for the partition functions (integrals / Hartree potential).

  Preparations completed.
  max(cpu_time)          :      0.571 s.
  Wall clock time (cpu1) :      0.571 s.
------------------------------------------------------------

  Initializing index lists of integration centers etc. from given atomic structure:
  | Number of centers in hartree potential         :         2
  | Number of centers in hartree multipole         :         2
  | Number of centers in electron density summation:         2
  | Number of centers in basis integrals           :         2
  | Number of centers in integrals                 :         2
  | Number of centers in hamiltonian               :         2

------------------------------------------------------------
          Begin self-consistency loop: Initialization.

          Date     :  20230815, Time     :  110114.968
------------------------------------------------------------

  Initializing relaxation algorithms.
  Finished initialization of distributed Hessian storage.
  | Global dimension:         6
  | BLACS block size:         6
  | Number of workers:        1

  Partitioning the integration grid into batches with parallel hashing+maxmin method.
  | Number of batches:      977
  | Maximal batch size:     192
  | Minimal batch size:      76
  | Average batch size:      88.504
  | Standard deviation of batch sizes:      18.580

  Integration load balanced across     1 MPI tasks.
  Work distribution over tasks is as follows:
  Task     0 has      86468 integration points.
  Initializing partition tables, free-atom densities, potentials, etc. across the integration grid (initialize_grid_storage).
  | initialize_grid_storage: Actual outermost partition radius vs. multipole_radius_free
  | (-- VB: in principle, multipole_radius_free should be larger, hence this output)
  | Species        1: Confinement radius =              6.000000000000000 AA, multipole_radius_free =              6.037031146364955 AA.
  | Species        1: outer_partition_radius set to              6.037031146364955 AA .
  | Species        2: Confinement radius =              7.500000000000000 AA, multipole_radius_free =              7.584818213133834 AA.
  | Species        2: outer_partition_radius set to              7.584818213133834 AA .
  | Species        3: Confinement radius =              6.000000000000000 AA, multipole_radius_free =              6.010660657397309 AA.
  | Species        3: outer_partition_radius set to              6.010660657397309 AA .
  | Species        4: Confinement radius =              6.000000000000000 AA, multipole_radius_free =              6.014903288056594 AA.
  | Species        4: outer_partition_radius set to              6.014903288056594 AA .
  | The sparse table of interatomic distances needs          0.04 kbyte instead of         0.03 kbyte of memory.
  | Using the partition_type stratmann_smoother will reduce your memory usage.
  | Net number of integration points:    86468
  | of which are non-zero points    :    85089
  Renormalizing the initial density to the exact electron count on the 3D integration grid.
  | Initial density: Formal number of electrons (from input files) :     117.0000000000
  | Integrated number of electrons on 3D grid     :     116.9999986308
  | Charge integration error                      :      -0.0000013692
  | Normalization factor for density and gradient :       1.0000000117
  Renormalizing the free-atom superposition density to the exact electron count on the 3D integration grid.
  | Formal number of electrons (from input files) :     117.0000000000
  | Integrated number of electrons on 3D grid     :     116.9999986308
  | Charge integration error                      :      -0.0000013692
  | Normalization factor for density and gradient :       1.0000000117
  Obtaining max. number of non-zero basis functions in each batch (get_n_compute_maxes).
  | Maximal number of non-zero basis functions:       88 in task     0
  Selecting the method for density update.
  split updates selected: force will be updated via density matrix and electron density via Kohn Sham orbitals.
  Allocating        0.053 MB for KS_eigenvector
  Integrating Hamiltonian matrix: batch-based integration.
  Time summed over all CPUs for integration: real work        0.258 s, elapsed        0.258 s
  Integrating overlap matrix.
  Time summed over all CPUs for integration: real work        0.098 s, elapsed        0.098 s

  Updating Kohn-Sham eigenvalues and eigenvectors using ELSI and the (modified) LAPACK eigensolver.
  Overlap matrix is not singular
  | Lowest and highest eigenvalues :  0.3656E-01,  0.1963E+01
  Finished singularity check of overlap matrix
  | Time :     0.001 s
  Starting LAPACK eigensolver
  Finished Cholesky decomposition
  | Time :     0.001 s
  Finished transformation to standard eigenproblem
  | Time :     0.000 s
  Finished solving standard eigenproblem
  | Time :     0.001 s
  Finished back-transformation of eigenvectors
  | Time :     0.000 s

  Obtaining occupation numbers and electronic chemical potential using ELSI.
  | Note that, for insulating systems, the printed 'chemical potential' value is not uniquely defined.
  | It can be anywhere in the energy gap, as long as it correctly separates occupied and unoccupied states.
  | In systems with a gap, the physically relevant chemical potential is the VBM or HOMO.

  | Chemical potential (Fermi level):    -3.28243394 eV
  Writing Kohn-Sham eigenvalues.

  State    Occupation    Eigenvalue [Ha]    Eigenvalue [eV]
      1       2.00000       -3583.282024       -97506.06494
      2       2.00000        -591.291981       -16089.87345
      3       2.00000        -505.947907       -13767.54305
      4       2.00000        -505.947904       -13767.54294
      5       2.00000        -505.947904       -13767.54294
      6       2.00000        -497.121407       -13527.36175
      7       2.00000        -139.818917        -3804.66631
      8       2.00000        -115.941744        -3154.93539
      9       2.00000        -115.941713        -3154.93454
     10       2.00000        -115.941713        -3154.93454
     11       2.00000         -91.726521        -2496.00563
     12       2.00000         -91.726515        -2496.00546
     13       2.00000         -91.726515        -2496.00546
     14       2.00000         -91.726496        -2496.00496
     15       2.00000         -91.726496        -2496.00496
     16       2.00000         -63.858848        -1737.68767
     17       2.00000         -56.311121        -1532.30357
     18       2.00000         -56.311011        -1532.30057
     19       2.00000         -56.311011        -1532.30057
     20       2.00000         -31.501379         -857.19614
     21       2.00000         -23.735524         -645.87646
     22       2.00000         -23.735350         -645.87174
     23       2.00000         -23.735350         -645.87174
     24       2.00000         -14.776699         -402.09445
     25       2.00000         -14.776643         -402.09292
     26       2.00000         -14.776643         -402.09292
     27       2.00000         -14.776507         -402.08920
     28       2.00000         -14.776507         -402.08920
     29       2.00000          -8.758098         -238.31998
     30       2.00000          -6.383725         -173.71001
     31       2.00000          -6.382407         -173.67413
     32       2.00000          -6.382407         -173.67413
     33       2.00000          -5.287590         -143.88265
     34       2.00000          -4.889360         -133.04626
     35       2.00000          -4.889328         -133.04537
     36       2.00000          -4.889328         -133.04537
     37       2.00000          -4.889241         -133.04303
     38       2.00000          -4.889241         -133.04303
     39       2.00000          -4.889120         -133.03974
     40       2.00000          -4.889120         -133.03974
     41       2.00000          -3.146338          -85.61622
     42       2.00000          -3.144961          -85.57875
     43       2.00000          -3.144961          -85.57875
     44       2.00000          -2.460543          -66.95479
     45       2.00000          -2.460014          -66.94040
     46       2.00000          -2.460014          -66.94040
     47       2.00000          -2.458940          -66.91115
     48       2.00000          -2.458940          -66.91115
     49       2.00000          -0.794067          -21.60766
     50       2.00000          -0.775382          -21.09921
     51       2.00000          -0.775382          -21.09921
     52       2.00000          -0.773034          -21.03533
     53       2.00000          -0.773034          -21.03533
     54       2.00000          -0.744590          -20.26131
     55       2.00000          -0.456522          -12.42259
     56       2.00000          -0.303710           -8.26438
     57       2.00000          -0.303710           -8.26438
     58       2.00000          -0.300835           -8.18615
     59       0.50000          -0.120452           -3.27766
     60       0.50000          -0.120452           -3.27766
     61       0.00000          -0.062032           -1.68797
     62       0.00000           0.095995            2.61216
     63       0.00000           0.157200            4.27762
     64       0.00000           0.178274            4.85108
     65       0.00000           0.178274            4.85108
     66       0.00000           0.180281            4.90570
     67       0.00000           0.205960            5.60447
     68       0.00000           0.205960            5.60447
     69       0.00000           0.226248            6.15651
     70       0.00000           0.226248            6.15651
     71       0.00000           0.239494            6.51697
     72       0.00000           0.239494            6.51697
     73       0.00000           0.321088            8.73726
     74       0.00000           0.321088            8.73726

  Highest occupied state (VBM) at     -8.18614976 eV
  | Occupation number:      2.00000000

  Lowest unoccupied state (CBM) at    -3.27766458 eV
  | Occupation number:      0.50000000

  Overall HOMO-LUMO gap:      4.90848518 eV.
  This system has fractional occupation numbers. Thus, it is a degenerate system
  within the approximate finite broadening function (occupation_type)
  applied to determine the occupation numbers.
  This may not be harmful. However, for some systems (free atoms), a different, non-degenerate
  ground state might exist by using a smaller broadening (see keyword occupation_type).
  Calculating total energy contributions from superposition of free atom densities.

  Total energy components:
  | Sum of eigenvalues            :      -15280.82504373 Ha     -415812.40574209 eV
  | XC energy correction          :        -485.37741302 Ha      -13207.79141322 eV
  | XC potential correction       :         634.31337949 Ha       17260.54526289 eV
  | Free-atom electrostatic energy:       -9180.04107286 Ha     -249801.62735926 eV
  | Hartree energy correction     :          -0.00000000 Ha          -0.00000000 eV
  | vdW energy correction         :           0.00000000 Ha           0.00000000 eV
  | Entropy correction            :          -0.00016515 Ha          -0.00449404 eV
  | ---------------------------
  | Total energy                  :      -24311.93015011 Ha     -661561.27925168 eV
  | Total energy, T -> 0          :      -24311.93031526 Ha     -661561.28374572 eV  <-- do not rely on this value for anything but (periodic) metals
  | Electronic free energy        :      -24311.93048041 Ha     -661561.28823976 eV

  Derived energy quantities:
  | Kinetic energy                :       27282.35916683 Ha      742390.76535578 eV
  | Electrostatic energy          :      -51108.91190392 Ha    -1390744.25319425 eV
  | Energy correction for multipole
  | error in Hartree potential    :           0.00000000 Ha           0.00000000 eV
  | Sum of eigenvalues per atom                           :     -207906.20287105 eV
  | Total energy (T->0) per atom                          :     -330780.64187286 eV  <-- do not rely on this value for anything but (periodic) metals
  | Electronic free energy per atom                       :     -330780.64411988 eV
  Initialize hartree_potential_storage
  Max. number of atoms included in rho_multipole:            2

  End scf initialization - timings             :  max(cpu_time)    wall_clock(cpu1)
  | Time for scf. initialization                :        0.578 s           0.577 s
  | Boundary condition initialization           :        0.000 s           0.000 s
  | Relaxation initialization                   :        0.000 s           0.000 s
  | Integration                                 :        0.357 s           0.357 s
  | Solution of K.-S. eqns.                     :        0.002 s           0.003 s
  | Grid partitioning                           :        0.107 s           0.107 s
  | Preloading free-atom quantities on grid     :        0.063 s           0.063 s
  | Free-atom superposition energy              :        0.048 s           0.047 s
  | Total energy evaluation                     :        0.000 s           0.000 s

  Partial memory accounting:
  | Current value for overall tracked memory usage:
  |   Minimum:        0.126 MB (on task 0)
  |   Maximum:        0.126 MB (on task 0)
  |   Average:        0.126 MB
  | Peak value for overall tracked memory usage:
  |   Minimum:        2.976 MB (on task 0 after allocating grid_partition)
  |   Maximum:        2.976 MB (on task 0 after allocating grid_partition)
  |   Average:        2.976 MB
  | Largest tracked array allocation so far:
  |   Minimum:        1.979 MB (all_coords on task 0)
  |   Maximum:        1.979 MB (all_coords on task 0)
  |   Average:        1.979 MB
  Note:  These values currently only include a subset of arrays which are explicitly tracked.
  The "true" memory usage will be greater.
------------------------------------------------------------
  Evaluating new KS density.
  Integration grid: deviation in total charge (<rho> - N_e) =   1.989520E-12

  Time for density update prior                :  max(cpu_time)    wall_clock(cpu1)
  | self-consistency iterative process          :        0.241 s           0.240 s

------------------------------------------------------------
          Begin self-consistency iteration #    1

  Date     :  20230815, Time     :  110115.786
------------------------------------------------------------
  Pulay mixing of updated and previous charge densities.
  Renormalizing the density to the exact electron count on the 3D integration grid.
  | Formal number of electrons (from input files) :     117.0000000000
  | Integrated number of electrons on 3D grid     :     117.0000000000
  | Charge integration error                      :      -0.0000000000
  | Normalization factor for density and gradient :       1.0000000000

  Evaluating partitioned Hartree potential by multipole expansion.
  | Original multipole sum: apparent total charge =  -0.205327E-11
  | Sum of charges compensated after spline to logarithmic grids =   0.533456E-07
  | Analytical far-field extrapolation by fixed multipoles:
  | Hartree multipole sum: apparent total charge =  -0.205316E-11
  Summing up the Hartree potential.
  Time summed over all CPUs for potential: real work        0.044 s, elapsed        0.044 s
  | RMS charge density error from multipole expansion :   0.196738E-03

  Integrating Hamiltonian matrix: batch-based integration.
  Time summed over all CPUs for integration: real work        0.260 s, elapsed        0.260 s

  Updating Kohn-Sham eigenvalues and eigenvectors using ELSI and the (modified) LAPACK eigensolver.
  Starting LAPACK eigensolver
  Finished Cholesky decomposition
  | Time :     0.001 s
  Finished transformation to standard eigenproblem
  | Time :     0.000 s
  Finished solving standard eigenproblem
  | Time :     0.001 s
  Finished back-transformation of eigenvectors
  | Time :     0.000 s

  Obtaining occupation numbers and electronic chemical potential using ELSI.
  | Note that, for insulating systems, the printed 'chemical potential' value is not uniquely defined.
  | It can be anywhere in the energy gap, as long as it correctly separates occupied and unoccupied states.
  | In systems with a gap, the physically relevant chemical potential is the VBM or HOMO.

  | Chemical potential (Fermi level):    -3.43970230 eV
  Writing Kohn-Sham eigenvalues.

  State    Occupation    Eigenvalue [Ha]    Eigenvalue [eV]
      1       2.00000       -3583.298874       -97506.52345
      2       2.00000        -591.308571       -16090.32488
      3       2.00000        -505.964529       -13767.99533
      4       2.00000        -505.964517       -13767.99502
      5       2.00000        -505.964517       -13767.99502
      6       2.00000        -497.069393       -13525.94637
      7       2.00000        -139.835210        -3805.10966
      8       2.00000        -115.958059        -3155.37933
      9       2.00000        -115.957991        -3155.37748
     10       2.00000        -115.957991        -3155.37748
     11       2.00000         -91.742858        -2496.45018
     12       2.00000         -91.742846        -2496.44987
     13       2.00000         -91.742846        -2496.44987
     14       2.00000         -91.742803        -2496.44869
     15       2.00000         -91.742803        -2496.44869
     16       2.00000         -63.809461        -1736.34378
     17       2.00000         -56.261505        -1530.95345
     18       2.00000         -56.261176        -1530.94448
     19       2.00000         -56.261176        -1530.94448
     20       2.00000         -31.517242         -857.62779
     21       2.00000         -23.751333         -646.30664
     22       2.00000         -23.751167         -646.30215
     23       2.00000         -23.751167         -646.30215
     24       2.00000         -14.792454         -402.52316
     25       2.00000         -14.792415         -402.52210
     26       2.00000         -14.792415         -402.52210
     27       2.00000         -14.792288         -402.51864
     28       2.00000         -14.792288         -402.51864
     29       2.00000          -8.712785         -237.08695
     30       2.00000          -6.338932         -172.49113
     31       2.00000          -6.336991         -172.43829
     32       2.00000          -6.336991         -172.43829
     33       2.00000          -5.302510         -144.28865
     34       2.00000          -4.905058         -133.47343
     35       2.00000          -4.905035         -133.47279
     36       2.00000          -4.905035         -133.47279
     37       2.00000          -4.904969         -133.47101
     38       2.00000          -4.904969         -133.47101
     39       2.00000          -4.904862         -133.46808
     40       2.00000          -4.904862         -133.46808
     41       2.00000          -3.160639          -86.00537
     42       2.00000          -3.159800          -85.98254
     43       2.00000          -3.159800          -85.98254
     44       2.00000          -2.415947          -65.74126
     45       2.00000          -2.415262          -65.72263
     46       2.00000          -2.415262          -65.72263
     47       2.00000          -2.413722          -65.68073
     48       2.00000          -2.413722          -65.68073
     49       2.00000          -0.799050          -21.74325
     50       2.00000          -0.788878          -21.46648
     51       2.00000          -0.788878          -21.46648
     52       2.00000          -0.787257          -21.42235
     53       2.00000          -0.787257          -21.42235
     54       2.00000          -0.722009          -19.64686
     55       2.00000          -0.460514          -12.53124
     56       2.00000          -0.285416           -7.76656
     57       2.00000          -0.278020           -7.56532
     58       2.00000          -0.278020           -7.56532
     59       0.50000          -0.126231           -3.43493
     60       0.50000          -0.126231           -3.43493
     61       0.00000          -0.062224           -1.69319
     62       0.00000           0.096675            2.63067
     63       0.00000           0.156050            4.24634
     64       0.00000           0.176929            4.81449
     65       0.00000           0.176929            4.81449
     66       0.00000           0.194523            5.29323
     67       0.00000           0.212799            5.79054
     68       0.00000           0.212799            5.79054
     69       0.00000           0.227238            6.18346
     70       0.00000           0.227238            6.18346
     71       0.00000           0.251901            6.85458
     72       0.00000           0.251901            6.85458
     73       0.00000           0.336310            9.15146
     74       0.00000           0.336310            9.15146

  Highest occupied state (VBM) at     -7.56531626 eV
  | Occupation number:      2.00000000

  Lowest unoccupied state (CBM) at    -3.43493293 eV
  | Occupation number:      0.50000000

  Overall HOMO-LUMO gap:      4.13038332 eV.
  This system has fractional occupation numbers. Thus, it is a degenerate system
  within the approximate finite broadening function (occupation_type)
  applied to determine the occupation numbers.
  This may not be harmful. However, for some systems (free atoms), a different, non-degenerate
  ground state might exist by using a smaller broadening (see keyword occupation_type).

  Total energy components:
  | Sum of eigenvalues            :      -15280.55093890 Ha     -415804.94697035 eV
  | XC energy correction          :        -485.40828472 Ha      -13208.63147496 eV
  | XC potential correction       :         634.35385461 Ha       17261.64664678 eV
  | Free-atom electrostatic energy:       -9180.04107286 Ha     -249801.62735926 eV
  | Hartree energy correction     :          -0.26992630 Ha          -7.34506821 eV
  | vdW energy correction         :           0.00000000 Ha           0.00000000 eV
  | Entropy correction            :          -0.00016515 Ha          -0.00449404 eV
  | ---------------------------
  | Total energy                  :      -24311.91636817 Ha     -661560.90422601 eV
  | Total energy, T -> 0          :      -24311.91653332 Ha     -661560.90872005 eV  <-- do not rely on this value for anything but (periodic) metals
  | Electronic free energy        :      -24311.91669847 Ha     -661560.91321409 eV

  Derived energy quantities:
  | Kinetic energy                :       27282.58344797 Ha      742396.86835606 eV
  | Electrostatic energy          :      -51109.09153142 Ha    -1390749.14110712 eV
  | Energy correction for multipole
  | error in Hartree potential    :           0.00021623 Ha           0.00588396 eV
  | Sum of eigenvalues per atom                           :     -207902.47348518 eV
  | Total energy (T->0) per atom                          :     -330780.45436003 eV  <-- do not rely on this value for anything but (periodic) metals
  | Electronic free energy per atom                       :     -330780.45660704 eV
  Evaluating new KS density.
  Integration grid: deviation in total charge (<rho> - N_e) =  -1.989520E-12

  Self-consistency convergence accuracy:
  | Change of charge density      :  0.7964E-01
  | Change of unmixed KS density  :  0.5964E+03
  | Change of sum of eigenvalues  :  0.7459E+01 eV
  | Change of total energy        :  0.3750E+00 eV


------------------------------------------------------------
  End self-consistency iteration #     1       :  max(cpu_time)    wall_clock(cpu1)
  | Time for this iteration                     :        0.550 s           0.550 s
  | Charge density update                       :        0.234 s           0.234 s
  | Density mixing                              :        0.004 s           0.004 s
  | Hartree multipole update                    :        0.005 s           0.005 s
  | Hartree multipole summation                 :        0.045 s           0.045 s
  | Integration                                 :        0.260 s           0.260 s
[...]
     25       2.00000         -14.795975         -402.61898
     26       2.00000         -14.795729         -402.61227
     27       2.00000         -14.795729         -402.61227
     28       2.00000         -14.795637         -402.60977
     29       2.00000          -8.689890         -236.46393
     30       2.00000          -6.317530         -171.90872
     31       2.00000          -6.313132         -171.78907
     32       2.00000          -6.313132         -171.78907
     33       2.00000          -5.307714         -144.43026
     34       2.00000          -4.908728         -133.57329
     35       2.00000          -4.908728         -133.57329
     36       2.00000          -4.908518         -133.56756
     37       2.00000          -4.908518         -133.56756
     38       2.00000          -4.908381         -133.56384
     39       2.00000          -4.908381         -133.56384
     40       2.00000          -4.908335         -133.56259
     41       2.00000          -3.166205          -86.15682
     42       2.00000          -3.166205          -86.15682
     43       2.00000          -3.164760          -86.11751
     44       2.00000          -2.393773          -65.13788
     45       2.00000          -2.392525          -65.10392
     46       2.00000          -2.392525          -65.10392
     47       2.00000          -2.389212          -65.01376
     48       2.00000          -2.389212          -65.01376
     49       2.00000          -0.799983          -21.76863
     50       2.00000          -0.795239          -21.63957
     51       2.00000          -0.795239          -21.63957
     52       2.00000          -0.794317          -21.61446
     53       2.00000          -0.794317          -21.61446
     54       2.00000          -0.695967          -18.93822
     55       2.00000          -0.462370          -12.58171
     56       2.00000          -0.269335           -7.32899
     57       2.00000          -0.251643           -6.84756
     58       2.00000          -0.251643           -6.84756
     59       0.50000          -0.130099           -3.54016
     60       0.50000          -0.130099           -3.54016
     61       0.00000          -0.061736           -1.67993
     62       0.00000           0.099718            2.71346
     63       0.00000           0.158366            4.30936
     64       0.00000           0.176575            4.80484
     65       0.00000           0.176575            4.80484
     66       0.00000           0.209528            5.70156
     67       0.00000           0.219055            5.96080
     68       0.00000           0.219055            5.96080
     69       0.00000           0.228547            6.21909
     70       0.00000           0.228547            6.21909
     71       0.00000           0.268014            7.29304
     72       0.00000           0.268014            7.29304
     73       0.00000           0.355651            9.67775
     74       0.00000           0.355651            9.67775

  Highest occupied state (VBM) at     -6.84755914 eV
  | Occupation number:      2.00000000

  Lowest unoccupied state (CBM) at    -3.54016349 eV
  | Occupation number:      0.50000017

  Overall HOMO-LUMO gap:      3.30739566 eV.
  This system has fractional occupation numbers. Thus, it is a degenerate system
  within the approximate finite broadening function (occupation_type)
  applied to determine the occupation numbers.
  This may not be harmful. However, for some systems (free atoms), a different, non-degenerate
  ground state might exist by using a smaller broadening (see keyword occupation_type).

  | Chemical Potential                          :    -3.54493285 eV
  | Note that, for insulating systems, the printed 'chemical potential' value is not uniquely defined.
  | It can be anywhere in the energy gap, as long as it correctly separates occupied and unoccupied states.
  | In systems with a gap, the physically relevant chemical potential is the VBM or HOMO.

  Self-consistency cycle converged.


------------------------------------------------------------
  End self-consistency iteration #     7       :  max(cpu_time)    wall_clock(cpu1)
  | Time for this iteration                     :        2.315 s           2.315 s
  | Charge density & force component update     :        1.792 s           1.792 s
  | Density mixing                              :        0.008 s           0.007 s
  | Hartree multipole update                    :        0.005 s           0.005 s
  | Hartree multipole summation                 :        0.149 s           0.149 s
  | Hartree pot. SCF incomplete forces          :        0.104 s           0.104 s
  | Integration                                 :        0.255 s           0.255 s
  | Solution of K.-S. eqns.                     :        0.001 s           0.001 s
  | Total energy evaluation                     :        0.000 s           0.001 s

  Partial memory accounting:
  | Current value for overall tracked memory usage:
  |   Minimum:        0.182 MB (on task 0)
  |   Maximum:        0.182 MB (on task 0)
  |   Average:        0.182 MB
  | Peak value for overall tracked memory usage:
  |   Minimum:        3.151 MB (on task 0 after allocating grid_partition)
  |   Maximum:        3.151 MB (on task 0 after allocating grid_partition)
  |   Average:        3.151 MB
  | Largest tracked array allocation so far:
  |   Minimum:        1.979 MB (all_coords on task 0)
  |   Maximum:        1.979 MB (all_coords on task 0)
  |   Average:        1.979 MB
  Note:  These values currently only include a subset of arrays which are explicitly tracked.
  The "true" memory usage will be greater.
------------------------------------------------------------
  Obtaining max. number of non-zero basis functions in each batch .
  Evaluating KS electron density on previously omitted grid points.
  Evaluating non-empirical van der Waals correction (Tkatchenko/Scheffler 2009).
  Performing Hirshfeld analysis of fragment charges and moments.
  ----------------------------------------------------------------------
  | Atom     1: Pb
  |   Hirshfeld charge        :      0.25326587
  |   Free atom volume        :    190.30456155
  |   Hirshfeld volume        :    170.60451014
  |   Hirshfeld dipole vector :     -0.08581773      -0.00000000       0.00000000
  |   Hirshfeld dipole moment :      0.08581773
  |   Hirshfeld second moments:      0.34317368      -0.00000000       0.00000000
  |                                 -0.00000000       0.41250212       0.00000000
  |                                  0.00000000       0.00000000       0.41250210
  ----------------------------------------------------------------------
  | Atom     2: Br
  |   Hirshfeld charge        :     -0.25326596
  |   Free atom volume        :     95.32616356
  |   Hirshfeld volume        :    100.17154513
  |   Hirshfeld dipole vector :      0.05426915       0.00000000       0.00000000
  |   Hirshfeld dipole moment :      0.05426915
  |   Hirshfeld second moments:     -0.06844079       0.00000000       0.00000000
  |                                  0.00000000      -0.19969434       0.00000000
  |                                  0.00000000       0.00000000      -0.19969434
  ----------------------------------------------------------------------


  Total energy components:
  | Sum of eigenvalues            :      -15280.02597981 Ha     -415790.66210666 eV
  | XC energy correction          :        -485.42277826 Ha      -13209.02586436 eV
  | XC potential correction       :         634.37230381 Ha       17262.14867517 eV
  | Free-atom electrostatic energy:       -9180.07381745 Ha     -249802.51838512 eV
  | Hartree energy correction     :          -0.76180587 Ha         -20.72979238 eV
  | vdW energy correction         :          -0.00001707 Ha          -0.00046459 eV
  | Entropy correction            :          -0.00016515 Ha          -0.00449404 eV
  | ---------------------------
  | Total energy                  :      -24311.91209466 Ha     -661560.78793794 eV
  | Total energy, T -> 0          :      -24311.91225981 Ha     -661560.79243198 eV  <-- do not rely on this value for anything but (periodic) metals
  | Electronic free energy        :      -24311.91242496 Ha     -661560.79692602 eV

  Derived energy quantities:
  | Kinetic energy                :       27282.58240487 Ha      742396.83997195 eV
  | Electrostatic energy          :      -51109.07170420 Ha    -1390748.60158093 eV
  | Energy correction for multipole
  | error in Hartree potential    :           0.00033074 Ha           0.00899979 eV
  | Sum of eigenvalues per atom                           :     -207895.33105333 eV
  | Total energy (T->0) per atom                          :     -330780.39621599 eV  <-- do not rely on this value for anything but (periodic) metals
  | Electronic free energy per atom                       :     -330780.39846301 eV

  atomic forces [eV/Ang]:
  -----------------------
  atom #    1
   Hellmann-Feynman              :  0.112001E+02  0.554243E-09  0.112634E-08
   Ionic forces                  :  0.000000E+00  0.000000E+00  0.000000E+00
   Multipole                     : -0.201500E+00 -0.294907E-09 -0.159344E-09
   Hartree pot. SCF incomplete   :  0.563467E-04 -0.326779E-09 -0.140746E-08
   Pulay + GGA                   : -0.109977E+02  0.831177E-06 -0.656949E-07
   Van der Waals                 : -0.122830E-02 -0.734272E-70  0.179022E-73
   ----------------------------------------------------------------
   Total forces(   1)            : -0.310470E-03  0.831109E-06 -0.661354E-07
  atom #    2
   Hellmann-Feynman              :  0.191864E+02  0.176139E-09  0.138484E-09
   Ionic forces                  :  0.000000E+00  0.000000E+00  0.000000E+00
   Multipole                     : -0.103159E+00  0.138860E-10 -0.384436E-11
   Hartree pot. SCF incomplete   :  0.830307E-06 -0.637509E-11 -0.475769E-10
   Pulay + GGA                   : -0.190848E+02 -0.775514E-07  0.205128E-08
   Van der Waals                 :  0.122830E-02  0.734272E-70 -0.179022E-73
   ----------------------------------------------------------------
   Total forces(   2)            : -0.274190E-03 -0.773677E-07  0.213835E-08

  Timings for VdW correction (Tkatchenko-Scheffler 2009 or later):
  | CPU time:        0.017 s, Wall clock time:        0.016 s.
  Removing unitary transformations (pure translations, rotations) from forces on atoms.
  Atomic forces before filtering:
  | Net force on center of mass :  -0.584660E-03  0.753741E-06 -0.639971E-07 eV/A
  | Net torque on center of mass:   0.534242E-74 -0.896594E-07 -0.119304E-05 eV
  Atomic forces after filtering:
  | Net force on center of mass :  -0.925569E-19  0.138512E-21 -0.141452E-22 eV/A
  | Net torque on center of mass:   0.407067E-92 -0.114878E-38  0.279294E-21 eV

  Energy and forces in a compact form:
  | Total energy uncorrected      :         -0.661560787937938E+06 eV
  | Total energy corrected        :         -0.661560792431978E+06 eV  <-- do not rely on this value for anything but (periodic) metals
  | Electronic free energy        :         -0.661560796926017E+06 eV
  Total atomic forces (unitary forces cleaned) [eV/Ang]:
  |    1         -0.181401513935604E-04         -0.370824822579994E-22         -0.707258045652599E-23
  |    2          0.181401513935603E-04          0.175594190827808E-21         -0.707258045652599E-23

  ------------------------------------ 
  Start decomposition of the XC Energy 
  ------------------------------------ 
  X and C from original XC functional choice 
  Hartree-Fock Energy :          0.000000000 Ha              0.000000000 eV
  X Energy            :       -478.692618562 Ha         -13025.888901013 eV
  C Energy            :         -6.730159700 Ha           -183.136963348 eV
  XC Energy w/o HF    :       -485.422778263 Ha         -13209.025864362 eV
  Total XC Energy     :       -485.422778263 Ha         -13209.025864362 eV
  ------------------------------------ 
  LDA X and C from self-consistent density 
  X Energy LDA        :       -458.327608193 Ha         -12471.728773494 eV
  C Energy LDA        :        -11.787697157 Ha           -320.759559721 eV
  ------------------------------------ 
  End decomposition of the XC Energy 
  ------------------------------------ 

------------------------------------------------------------
  Relaxation / MD: End force evaluation.       :  max(cpu_time)    wall_clock(cpu1)
  | Time for this force evaluation              :        6.137 s           6.141 s

------------------------------------------------------------
  Geometry optimization: Attempting to predict improved coordinates.

  Removing unitary transformations (pure translations, rotations) from forces on atoms.
  Atomic forces before filtering:
  | Net force on center of mass :  -0.925569E-19  0.138512E-21 -0.141452E-22 eV/A
  | Net torque on center of mass:   0.407067E-92 -0.114878E-38  0.279294E-21 eV
  Atomic forces after filtering:
  | Net force on center of mass :   0.000000E+00  0.396452E-37 -0.174352E-38 eV/A
  | Net torque on center of mass:  -0.723095-108 -0.207924E-54 -0.496126E-37 eV
  Net remaining forces (excluding translations, rotations) in present geometry:
  || Forces on atoms   || =   0.181402E-04 eV/A.
  Maximum force component is  0.181402E-04 eV/A.
  Present geometry is converged.

------------------------------------------------------------
  Final atomic structure:
                         x [A]             y [A]             z [A]
            atom        -0.01323338       -0.00000000        0.00000000  Pb
            atom         2.61323338        0.00000000        0.00000000  Br
------------------------------------------------------------

------------------------------------------------------------------------------
  Final output of selected total energy values:

  The following output summarizes some interesting total energy values
  at the end of a run (AFTER all relaxation, molecular dynamics, etc.).

  | Total energy of the DFT / Hartree-Fock s.c.f. calculation      :        -661560.787937938 eV
  | Final zero-broadening corrected energy (caution - metals only) :        -661560.792431978 eV
  | For reference only, the value of 1 Hartree used in FHI-aims is :             27.211384500 eV

  Before relying on these values, please be sure to understand exactly which
  total energy value is referred to by a given number. Different objects may
  all carry the same name 'total energy'. Definitions:

  Total energy of the DFT / Hartree-Fock s.c.f. calculation:
  | Note that this energy does not include ANY quantities calculated after the
  | s.c.f. cycle, in particular not ANY RPA, MP2, etc. many-body perturbation terms.

  Final zero-broadening corrected energy:
  | For metallic systems only, a broadening of the occupation numbers at the Fermi
  | level can be extrapolated back to zero broadening by an electron-gas inspired
  | formula. For all systems that are not real metals, this value can be
  | meaningless and should be avoided.

------------------------------------------------------------------------------
  Methods described in the following list of references were used in this FHI-aims run.
  If you publish the results, please make sure to cite these reference if they apply.
  FHI-aims is an academic code, and for our developers (often, Ph.D. students
  and postdocs), scientific credit in the community is essential.
  Thank you for helping us!

  For any use of FHI-aims, please cite:

    Volker Blum, Ralf Gehrke, Felix Hanke, Paula Havu, Ville Havu,
    Xinguo Ren, Karsten Reuter, and Matthias Scheffler
    'Ab initio molecular simulations with numeric atom-centered orbitals'
    Computer Physics Communications 180, 2175-2196 (2009)
    http://doi.org/10.1016/j.cpc.2009.06.022


  The ELSI infrastructure was used in your run to solve the Kohn-Sham electronic structure.
  Please check out http://elsi-interchange.org to learn more.
  If scalability is important for your project, please acknowledge ELSI by citing:

    V. W-z. Yu, F. Corsetti, A. Garcia, W. P. Huhn, M. Jacquelin, W. Jia,
    B. Lange, L. Lin, J. Lu, W. Mi, A. Seifitokaldani, A. Vazquez-Mayagoitia,
    C. Yang, H. Yang, and V. Blum
    'ELSI: A unified software interface for Kohn-Sham electronic structure solvers'
    Computer Physics Communications 222, 267-285 (2018).
    http://doi.org/10.1016/j.cpc.2017.09.007


  For the real-space grid partitioning and parallelization used in this calculation, please cite:

    Ville Havu, Volker Blum, Paula Havu, and Matthias Scheffler,
    'Efficient O(N) integration for all-electron electronic structure calculation'
    'using numerically tabulated basis functions'
    Journal of Computational Physics 228, 8367-8379 (2009).
    http://doi.org/10.1016/j.jcp.2009.08.008

  Of course, there are many other important community references, e.g., those cited in the
  above references. Our list is limited to references that describe implementations in the
  FHI-aims code. The reason is purely practical (length of this list) - please credit others as well.

------------------------------------------------------------
          Leaving FHI-aims.
          Date     :  20230815, Time     :  110155.129

          Computational steps:
          | Number of self-consistency cycles          :           51
          | Number of SCF (re)initializations          :            5
          | Number of relaxation steps                 :            4

          Detailed time accounting                     :  max(cpu_time)    wall_clock(cpu1)
          | Total time                                  :       40.681 s          40.744 s
          | Preparation time                            :        0.571 s           0.571 s
          | Boundary condition initalization            :        0.000 s           0.001 s
          | Grid partitioning                           :        0.517 s           0.518 s
          | Preloading free-atom quantities on grid     :        0.261 s           0.260 s
          | Free-atom superposition energy              :        0.233 s           0.232 s
          | Total time for integrations                 :       13.882 s          13.889 s
          | Total time for solution of K.-S. equations  :        0.067 s           0.063 s
          | Total time for EV reorthonormalization      :        0.001 s           0.001 s
          | Total time for density & force components   :       20.839 s          20.842 s
          | Total time for mixing                       :        0.331 s           0.334 s
          | Total time for Hartree multipole update     :        0.246 s           0.239 s
          | Total time for Hartree multipole sum        :        2.771 s           2.774 s
          | Total time for total energy evaluation      :        0.009 s           0.013 s
          | Total time NSC force correction             :        0.523 s           0.523 s
          | Total time for scaled ZORA corrections      :        0.000 s           0.000 s
          | Total time for vdW correction               :        0.086 s           0.084 s

          Partial memory accounting:
          | Residual value for overall tracked memory usage across tasks:     0.000000 MB (should be 0.000000 MB)
          | Peak values for overall tracked memory usage:
          |   Minimum:        3.151 MB (on task 0 after allocating grid_partition)
          |   Maximum:        3.151 MB (on task 0 after allocating grid_partition)
          |   Average:        3.151 MB
          | Largest tracked array allocation:
          |   Minimum:        1.979 MB (all_coords on task 0)
          |   Maximum:        1.979 MB (all_coords on task 0)
          |   Average:        1.979 MB
          Note:  These values currently only include a subset of arrays which are explicitly tracked.
          The "true" memory usage will be greater.

          Have a nice day.
------------------------------------------------------------
